/*--------------------------------*- C++ -*----------------------------------*\
| =========                 |                                                 |
| \\      /  F ield         | OpenFOAM: The Open Source CFD Toolbox           |
|  \\    /   O peration     | Version:  2512                                  |
|   \\  /    A nd           | Website:  www.openfoam.com                      |
|    \\/     M anipulation  |                                                 |
\*---------------------------------------------------------------------------*/
FoamFile
{
    version     2.0;
    format      ascii;
    arch        "LSB;label=32;scalar=64";
    class       volVectorField;
    location    "1";
    object      D;
}
// * * * * * * * * * * * * * * * * * * * * * * * * * * * * * * * * * * * * * //

dimensions      [0 1 0 0 0 0 0];

internalField   nonuniform List<vector> 
160
(
(-8.5353078e-08 -4.498618e-08 0)
(-2.4398201e-07 -1.9051698e-07 0)
(-3.9317991e-07 -4.3271468e-07 0)
(-5.3261467e-07 -7.6945146e-07 0)
(-6.6256761e-07 -1.1951911e-06 0)
(-7.8330353e-07 -1.703734e-06 0)
(-8.9509241e-07 -2.2890148e-06 0)
(-9.9820392e-07 -2.9451531e-06 0)
(-1.0929077e-06 -3.6664525e-06 0)
(-1.1794734e-06 -4.4473977e-06 0)
(-1.2581703e-06 -5.2826532e-06 0)
(-1.3292677e-06 -6.1670635e-06 0)
(-1.3930345e-06 -7.0956523e-06 0)
(-1.4497392e-06 -8.0636224e-06 0)
(-1.4996504e-06 -9.066356e-06 0)
(-1.543036e-06 -1.0099414e-05 0)
(-1.5801639e-06 -1.1158535e-05 0)
(-1.6113013e-06 -1.2239639e-05 0)
(-1.6367152e-06 -1.333882e-05 0)
(-1.6566724e-06 -1.4452352e-05 0)
(-1.671439e-06 -1.5576688e-05 0)
(-1.6812809e-06 -1.6708456e-05 0)
(-1.6864634e-06 -1.7844462e-05 0)
(-1.6872514e-06 -1.8981689e-05 0)
(-1.6839097e-06 -2.0117297e-05 0)
(-1.676702e-06 -2.124862e-05 0)
(-1.6658921e-06 -2.2373171e-05 0)
(-1.651743e-06 -2.3488637e-05 0)
(-1.6345173e-06 -2.459288e-05 0)
(-1.614477e-06 -2.5683936e-05 0)
(-1.5918838e-06 -2.6760019e-05 0)
(-1.5669987e-06 -2.7819513e-05 0)
(-1.5400818e-06 -2.8860979e-05 0)
(-1.5113923e-06 -2.9883154e-05 0)
(-1.4811866e-06 -3.088496e-05 0)
(-1.4497152e-06 -3.1865531e-05 0)
(-1.4172122e-06 -3.2824273e-05 0)
(-1.3838892e-06 -3.3760427e-05 0)
(-1.349461e-06 -3.4669494e-05 0)
(-1.3144713e-06 -3.5500245e-05 0)
(-2.4173903e-08 -1.4982852e-08 0)
(-7.8035601e-08 -1.5894774e-07 0)
(-1.2833537e-07 -4.0335843e-07 0)
(-1.7505416e-07 -7.4230983e-07 0)
(-2.1848599e-07 -1.1700056e-06 0)
(-2.5881189e-07 -1.6803852e-06 0)
(-2.9614701e-07 -2.2674326e-06 0)
(-3.3058754e-07 -2.9252803e-06 0)
(-3.6222489e-07 -3.6482345e-06 0)
(-3.911493e-07 -4.4307804e-06 0)
(-4.1745069e-07 -5.2675828e-06 0)
(-4.412188e-07 -6.1534862e-06 0)
(-4.6254328e-07 -7.0835143e-06 0)
(-4.8151369e-07 -8.0528701e-06 0)
(-4.9821948e-07 -9.0569356e-06 0)
(-5.1275e-07 -1.0091272e-05 0)
(-5.2519448e-07 -1.1151618e-05 0)
(-5.3564204e-07 -1.2233893e-05 0)
(-5.4418169e-07 -1.3334192e-05 0)
(-5.5090229e-07 -1.4448789e-05 0)
(-5.5589259e-07 -1.5574137e-05 0)
(-5.5924118e-07 -1.6706863e-05 0)
(-5.6103653e-07 -1.7843775e-05 0)
(-5.6136696e-07 -1.8981854e-05 0)
(-5.6032062e-07 -2.0118262e-05 0)
(-5.5798553e-07 -2.1250332e-05 0)
(-5.5444956e-07 -2.2375578e-05 0)
(-5.498004e-07 -2.3491685e-05 0)
(-5.4412561e-07 -2.4596517e-05 0)
(-5.3751263e-07 -2.568811e-05 0)
(-5.3004886e-07 -2.6764677e-05 0)
(-5.2182198e-07 -2.7824603e-05 0)
(-5.1292078e-07 -2.8866448e-05 0)
(-5.034381e-07 -2.9888942e-05 0)
(-4.9348151e-07 -3.0890982e-05 0)
(-4.8321483e-07 -3.1871588e-05 0)
(-4.730172e-07 -3.2829677e-05 0)
(-4.6400492e-07 -3.376311e-05 0)
(-4.5931278e-07 -3.4665774e-05 0)
(-4.6121205e-07 -3.552367e-05 0)
(2.4173575e-08 -1.4982787e-08 0)
(7.8034519e-08 -1.5894762e-07 0)
(1.2833351e-07 -4.033583e-07 0)
(1.7505151e-07 -7.423097e-07 0)
(2.1848256e-07 -1.1700055e-06 0)
(2.5880768e-07 -1.6803851e-06 0)
(2.9614202e-07 -2.2674325e-06 0)
(3.3058176e-07 -2.9252802e-06 0)
(3.6221834e-07 -3.6482343e-06 0)
(3.9114199e-07 -4.4307802e-06 0)
(4.1744261e-07 -5.2675827e-06 0)
(4.4120998e-07 -6.1534861e-06 0)
(4.6253375e-07 -7.0835142e-06 0)
(4.8150346e-07 -8.05287e-06 0)
(4.9820857e-07 -9.0569355e-06 0)
(5.1273844e-07 -1.0091272e-05 0)
(5.2518229e-07 -1.1151618e-05 0)
(5.3562927e-07 -1.2233893e-05 0)
(5.4416835e-07 -1.3334192e-05 0)
(5.5088843e-07 -1.4448789e-05 0)
(5.5587824e-07 -1.5574137e-05 0)
(5.5922638e-07 -1.6706863e-05 0)
(5.6102131e-07 -1.7843775e-05 0)
(5.6135136e-07 -1.8981854e-05 0)
(5.6030467e-07 -2.0118262e-05 0)
(5.5796928e-07 -2.1250332e-05 0)
(5.5443302e-07 -2.2375578e-05 0)
(5.4978361e-07 -2.3491685e-05 0)
(5.4410858e-07 -2.4596517e-05 0)
(5.3749538e-07 -2.568811e-05 0)
(5.3003141e-07 -2.6764677e-05 0)
(5.2180432e-07 -2.7824603e-05 0)
(5.1290288e-07 -2.8866447e-05 0)
(5.0341991e-07 -2.9888942e-05 0)
(4.9346302e-07 -3.0890982e-05 0)
(4.8319608e-07 -3.1871588e-05 0)
(4.7299829e-07 -3.2829677e-05 0)
(4.6398591e-07 -3.376311e-05 0)
(4.5929368e-07 -3.4665774e-05 0)
(4.6119291e-07 -3.552367e-05 0)
(8.5352724e-08 -4.4985959e-08 0)
(2.4398097e-07 -1.9051664e-07 0)
(3.9317817e-07 -4.3271432e-07 0)
(5.3261222e-07 -7.6945109e-07 0)
(6.6256443e-07 -1.1951908e-06 0)
(7.8329961e-07 -1.7037336e-06 0)
(8.9508776e-07 -2.2890144e-06 0)
(9.9819854e-07 -2.9451528e-06 0)
(1.0929016e-06 -3.6664522e-06 0)
(1.1794666e-06 -4.4473973e-06 0)
(1.2581628e-06 -5.2826529e-06 0)
(1.3292595e-06 -6.1670632e-06 0)
(1.3930255e-06 -7.0956519e-06 0)
(1.4497296e-06 -8.0636221e-06 0)
(1.4996402e-06 -9.0663557e-06 0)
(1.5430252e-06 -1.0099414e-05 0)
(1.5801524e-06 -1.1158535e-05 0)
(1.6112893e-06 -1.2239638e-05 0)
(1.6367027e-06 -1.3338819e-05 0)
(1.6566594e-06 -1.4452352e-05 0)
(1.6714255e-06 -1.5576688e-05 0)
(1.6812669e-06 -1.6708455e-05 0)
(1.686449e-06 -1.7844462e-05 0)
(1.6872368e-06 -1.8981689e-05 0)
(1.6838946e-06 -2.0117296e-05 0)
(1.6766867e-06 -2.124862e-05 0)
(1.6658765e-06 -2.2373171e-05 0)
(1.6517271e-06 -2.3488637e-05 0)
(1.6345012e-06 -2.459288e-05 0)
(1.6144608e-06 -2.5683936e-05 0)
(1.5918673e-06 -2.6760019e-05 0)
(1.5669819e-06 -2.7819513e-05 0)
(1.5400648e-06 -2.8860979e-05 0)
(1.511375e-06 -2.9883154e-05 0)
(1.4811691e-06 -3.0884959e-05 0)
(1.4496974e-06 -3.1865531e-05 0)
(1.4171942e-06 -3.2824273e-05 0)
(1.383871e-06 -3.3760427e-05 0)
(1.3494426e-06 -3.4669494e-05 0)
(1.3144529e-06 -3.5500245e-05 0)
)
;

boundaryField
{
    left
    {
        nonOrthogonalCorrections true;
        type            fixedDisplacement;
        value           uniform (0 0 0);
    }
    right
    {
        type            solidTraction;
        nonOrthogonalCorrections true;
        useUndeformedArea false;
        traction        uniform (0 0 0);
        pressure        uniform 0;
        secondOrder     false;
        extrapolateValue false;
        setEffectiveTraction false;
        relaxationFactor 1;
        value           nonuniform List<vector> 4((-1.2775492e-06 -3.5787645e-05 0) (-4.4865255e-07 -3.5955118e-05 0) (4.4863345e-07 -3.5955118e-05 0) (1.2775307e-06 -3.5787645e-05 0));
        gradient        nonuniform List<vector> 4((2.9537731e-06 -2.2992003e-05 0) (1.00476e-06 -3.4515834e-05 0) (-1.0047573e-06 -3.4515846e-05 0) (-2.953774e-06 -2.2992017e-05 0));
    }
    top
    {
        type            solidTraction;
        nonOrthogonalCorrections true;
        useUndeformedArea false;
        traction        uniform (0 0 0);
        pressure        uniform 0;
        secondOrder     false;
        extrapolateValue false;
        setEffectiveTraction false;
        relaxationFactor 1;
        value           nonuniform List<vector> 
40
(
(1.404161e-07 -7.0607783e-08 0)
(3.4163632e-07 -2.2027214e-07 0)
(5.3717133e-07 -4.6126493e-07 0)
(7.2232675e-07 -7.9630183e-07 0)
(8.9519682e-07 -1.2202024e-06 0)
(1.055831e-06 -1.7269331e-06 0)
(1.2045385e-06 -2.3104517e-06 0)
(1.3416755e-06 -2.9648814e-06 0)
(1.467602e-06 -3.6845263e-06 0)
(1.5826779e-06 -4.4638708e-06 0)
(1.6872623e-06 -5.2975796e-06 0)
(1.7817144e-06 -6.180497e-06 0)
(1.8663926e-06 -7.1076466e-06 0)
(1.9416553e-06 -8.0742313e-06 0)
(2.0078602e-06 -9.075633e-06 0)
(2.0653649e-06 -1.0107413e-05 0)
(2.1145264e-06 -1.116531e-05 0)
(2.1557011e-06 -1.2245242e-05 0)
(2.189245e-06 -1.3343305e-05 0)
(2.2155138e-06 -1.4455772e-05 0)
(2.2348624e-06 -1.5579097e-05 0)
(2.2476453e-06 -1.6709906e-05 0)
(2.2542163e-06 -1.7845007e-05 0)
(2.2549287e-06 -1.8981382e-05 0)
(2.2501352e-06 -2.011619e-05 0)
(2.2401878e-06 -2.1246767e-05 0)
(2.2254381e-06 -2.2370625e-05 0)
(2.2062368e-06 -2.3485449e-05 0)
(2.1829341e-06 -2.4589103e-05 0)
(2.1558793e-06 -2.5679623e-05 0)
(2.1254212e-06 -2.6755221e-05 0)
(2.0919079e-06 -2.7814283e-05 0)
(2.0556875e-06 -2.8855369e-05 0)
(2.0171089e-06 -2.9877217e-05 0)
(1.976522e-06 -3.0878745e-05 0)
(1.9342463e-06 -3.1859065e-05 0)
(1.8903054e-06 -3.2817372e-05 0)
(1.8422283e-06 -3.3751934e-05 0)
(1.7770578e-06 -3.4651216e-05 0)
(1.5984956e-06 -3.5462784e-05 0)
)
;
        gradient        nonuniform List<vector> 
40
(
(4.40507e-06 -2.0497459e-06 0)
(7.8124284e-06 -2.3804403e-06 0)
(1.1519453e-05 -2.2840489e-06 0)
(1.5177162e-05 -2.1480593e-06 0)
(1.8610591e-05 -2.0009327e-06 0)
(2.1802509e-05 -1.8559584e-06 0)
(2.4756057e-05 -1.7149769e-06 0)
(2.7478155e-05 -1.578293e-06 0)
(2.9976031e-05 -1.445928e-06 0)
(3.2256902e-05 -1.3178777e-06 0)
(3.4327962e-05 -1.1941373e-06 0)
(3.6196391e-05 -1.0747025e-06 0)
(3.7869366e-05 -9.5956912e-07 0)
(3.9354051e-05 -8.4873254e-07 0)
(4.0657605e-05 -7.4218791e-07 0)
(4.178718e-05 -6.3993008e-07 0)
(4.2749916e-05 -5.4195355e-07 0)
(4.3552944e-05 -4.4825259e-07 0)
(4.4203388e-05 -3.5882115e-07 0)
(4.4708358e-05 -2.7365297e-07 0)
(4.5074955e-05 -1.9274152e-07 0)
(4.531027e-05 -1.1608007e-07 0)
(4.5421381e-05 -4.3661686e-08 0)
(4.5415353e-05 2.4520752e-08 0)
(4.5299243e-05 8.8474539e-08 0)
(4.5080092e-05 1.4820711e-07 0)
(4.476493e-05 2.0372611e-07 0)
(4.4360775e-05 2.5503948e-07 0)
(4.387463e-05 3.0215561e-07 0)
(4.3313483e-05 3.4508302e-07 0)
(4.2684308e-05 3.8382918e-07 0)
(4.1994079e-05 4.1839799e-07 0)
(4.1249817e-05 4.4878499e-07 0)
(4.0458708e-05 4.7497908e-07 0)
(3.9628233e-05 4.9715643e-07 0)
(3.8763914e-05 5.1727574e-07 0)
(3.7848897e-05 5.5207806e-07 0)
(3.6668587e-05 6.7944153e-07 0)
(3.4209219e-05 1.4622856e-06 0)
(2.2723422e-05 2.9969256e-06 0)
)
;
    }
    bottom
    {
        type            solidTraction;
        nonOrthogonalCorrections true;
        useUndeformedArea false;
        traction        uniform (0 0 0);
        pressure        uniform 0;
        secondOrder     false;
        extrapolateValue false;
        setEffectiveTraction false;
        relaxationFactor 1;
        value           nonuniform List<vector> 
40
(
(-1.4041656e-07 -7.0608085e-08 0)
(-3.4163741e-07 -2.2027258e-07 0)
(-5.3717308e-07 -4.612654e-07 0)
(-7.2232921e-07 -7.9630231e-07 0)
(-8.952e-07 -1.2202029e-06 0)
(-1.0558349e-06 -1.7269335e-06 0)
(-1.2045431e-06 -2.3104521e-06 0)
(-1.3416809e-06 -2.9648819e-06 0)
(-1.4676081e-06 -3.6845267e-06 0)
(-1.5826847e-06 -4.4638712e-06 0)
(-1.6872699e-06 -5.2975801e-06 0)
(-1.7817226e-06 -6.1804974e-06 0)
(-1.8664015e-06 -7.107647e-06 0)
(-1.9416649e-06 -8.0742317e-06 0)
(-2.0078705e-06 -9.0756335e-06 0)
(-2.0653758e-06 -1.0107413e-05 0)
(-2.1145378e-06 -1.116531e-05 0)
(-2.155713e-06 -1.2245242e-05 0)
(-2.1892576e-06 -1.3343305e-05 0)
(-2.2155269e-06 -1.4455773e-05 0)
(-2.2348759e-06 -1.5579097e-05 0)
(-2.2476592e-06 -1.6709907e-05 0)
(-2.2542306e-06 -1.7845008e-05 0)
(-2.2549434e-06 -1.8981382e-05 0)
(-2.2501502e-06 -2.0116191e-05 0)
(-2.2402031e-06 -2.1246768e-05 0)
(-2.2254537e-06 -2.2370625e-05 0)
(-2.2062526e-06 -2.3485449e-05 0)
(-2.1829501e-06 -2.4589103e-05 0)
(-2.1558956e-06 -2.5679623e-05 0)
(-2.1254377e-06 -2.6755221e-05 0)
(-2.0919247e-06 -2.7814283e-05 0)
(-2.0557045e-06 -2.885537e-05 0)
(-2.0171262e-06 -2.9877217e-05 0)
(-1.9765395e-06 -3.0878745e-05 0)
(-1.9342641e-06 -3.1859065e-05 0)
(-1.8903234e-06 -3.2817372e-05 0)
(-1.8422466e-06 -3.3751934e-05 0)
(-1.7770762e-06 -3.4651216e-05 0)
(-1.5985141e-06 -3.5462784e-05 0)
)
;
        gradient        nonuniform List<vector> 
40
(
(-4.4050787e-06 -2.0497524e-06 0)
(-7.8124317e-06 -2.3804481e-06 0)
(-1.1519454e-05 -2.2840572e-06 0)
(-1.5177163e-05 -2.1480679e-06 0)
(-1.8610591e-05 -2.0009414e-06 0)
(-2.1802509e-05 -1.8559672e-06 0)
(-2.4756057e-05 -1.7149858e-06 0)
(-2.7478154e-05 -1.5783018e-06 0)
(-2.9976031e-05 -1.4459367e-06 0)
(-3.2256902e-05 -1.3178863e-06 0)
(-3.4327961e-05 -1.1941457e-06 0)
(-3.6196391e-05 -1.0747108e-06 0)
(-3.7869365e-05 -9.5957718e-07 0)
(-3.935405e-05 -8.4874035e-07 0)
(-4.0657605e-05 -7.4219545e-07 0)
(-4.1787179e-05 -6.3993731e-07 0)
(-4.2749915e-05 -5.4196046e-07 0)
(-4.3552943e-05 -4.4825914e-07 0)
(-4.4203387e-05 -3.5882734e-07 0)
(-4.4708357e-05 -2.7365877e-07 0)
(-4.5074954e-05 -1.9274691e-07 0)
(-4.5310269e-05 -1.1608506e-07 0)
(-4.542138e-05 -4.3666263e-08 0)
(-4.5415353e-05 2.4516579e-08 0)
(-4.5299242e-05 8.8470753e-08 0)
(-4.5080091e-05 1.482037e-07 0)
(-4.4764929e-05 2.0372305e-07 0)
(-4.4360774e-05 2.5503668e-07 0)
(-4.3874628e-05 3.0215287e-07 0)
(-4.3313481e-05 3.4508008e-07 0)
(-4.2684308e-05 3.8382593e-07 0)
(-4.1994082e-05 4.1839472e-07 0)
(-4.1249821e-05 4.4878205e-07 0)
(-4.0458708e-05 4.749765e-07 0)
(-3.9628229e-05 4.9715381e-07 0)
(-3.8763908e-05 5.1727267e-07 0)
(-3.7848894e-05 5.520749e-07 0)
(-3.6668588e-05 6.7943932e-07 0)
(-3.4209219e-05 1.4622846e-06 0)
(-2.2723418e-05 2.996925e-06 0)
)
;
    }
    frontAndBack
    {
        type            empty;
    }
}


// ************************************************************************* //
