/*--------------------------------*- C++ -*----------------------------------*\
| =========                 |                                                 |
| \\      /  F ield         | OpenFOAM: The Open Source CFD Toolbox           |
|  \\    /   O peration     | Version:  2512                                  |
|   \\  /    A nd           | Website:  www.openfoam.com                      |
|    \\/     M anipulation  |                                                 |
\*---------------------------------------------------------------------------*/
FoamFile
{
    version     2.0;
    format      ascii;
    arch        "LSB;label=32;scalar=64";
    class       volVectorField;
    location    "1";
    object      D_0;
}
// * * * * * * * * * * * * * * * * * * * * * * * * * * * * * * * * * * * * * //

dimensions      [0 1 0 0 0 0 0];

internalField   nonuniform List<vector> 
160
(
(-8.465145e-08 -4.4717175e-08 0)
(-2.4188403e-07 -1.892496e-07 0)
(-3.8968635e-07 -4.2956388e-07 0)
(-5.2773464e-07 -7.6349062e-07 0)
(-6.5631388e-07 -1.1854937e-06 0)
(-7.7569254e-07 -1.689383e-06 0)
(-8.861442e-07 -2.2691059e-06 0)
(-9.8794204e-07 -2.9187965e-06 0)
(-1.0813592e-06 -3.6327753e-06 0)
(-1.1666686e-06 -4.4055464e-06 0)
(-1.2441429e-06 -5.2317959e-06 0)
(-1.3140546e-06 -6.1063918e-06 0)
(-1.3766756e-06 -7.0243836e-06 0)
(-1.4322777e-06 -7.9810022e-06 0)
(-1.4811321e-06 -8.9716593e-06 0)
(-1.5235097e-06 -9.9919477e-06 0)
(-1.5596808e-06 -1.103764e-05 0)
(-1.5899153e-06 -1.210469e-05 0)
(-1.6144826e-06 -1.3189231e-05 0)
(-1.6336516e-06 -1.4287574e-05 0)
(-1.6476905e-06 -1.5396212e-05 0)
(-1.6568671e-06 -1.6511815e-05 0)
(-1.6614486e-06 -1.763123e-05 0)
(-1.6617014e-06 -1.8751486e-05 0)
(-1.6578914e-06 -1.9869785e-05 0)
(-1.6502841e-06 -2.0983509e-05 0)
(-1.6391439e-06 -2.2090215e-05 0)
(-1.6247348e-06 -2.3187637e-05 0)
(-1.6073201e-06 -2.4273686e-05 0)
(-1.5871624e-06 -2.5346446e-05 0)
(-1.5645234e-06 -2.6404178e-05 0)
(-1.5396642e-06 -2.7445314e-05 0)
(-1.5128452e-06 -2.8468464e-05 0)
(-1.4843253e-06 -2.9472412e-05 0)
(-1.4543603e-06 -3.0456127e-05 0)
(-1.4232006e-06 -3.1418792e-05 0)
(-1.3910795e-06 -3.2359856e-05 0)
(-1.3582085e-06 -3.327861e-05 0)
(-1.3243107e-06 -3.4170677e-05 0)
(-1.289921e-06 -3.4985832e-05 0)
(-2.396568e-08 -1.4978617e-08 0)
(-7.7347572e-08 -1.5796968e-07 0)
(-1.271764e-07 -4.0048976e-07 0)
(-1.734319e-07 -7.3662546e-07 0)
(-2.1640628e-07 -1.1605808e-06 0)
(-2.5628062e-07 -1.666303e-06 0)
(-2.9317096e-07 -2.2477881e-06 0)
(-3.2717456e-07 -2.8991829e-06 0)
(-3.5838398e-07 -3.6148108e-06 0)
(-3.8689057e-07 -4.3891763e-06 0)
(-4.1278534e-07 -5.2169657e-06 0)
(-4.361591e-07 -6.0930469e-06 0)
(-4.5710255e-07 -7.0124698e-06 0)
(-4.7570623e-07 -7.9704651e-06 0)
(-4.9206056e-07 -8.9624448e-06 0)
(-5.0625582e-07 -9.9840017e-06 0)
(-5.1838211e-07 -1.1030909e-05 0)
(-5.285294e-07 -1.2099119e-05 0)
(-5.3678747e-07 -1.3184767e-05 0)
(-5.4324594e-07 -1.4284163e-05 0)
(-5.4799423e-07 -1.53938e-05 0)
(-5.5112159e-07 -1.6510349e-05 0)
(-5.5271704e-07 -1.7630657e-05 0)
(-5.5286944e-07 -1.8751751e-05 0)
(-5.5166742e-07 -1.9870837e-05 0)
(-5.491994e-07 -2.0985293e-05 0)
(-5.4555359e-07 -2.209268e-05 0)
(-5.4081798e-07 -2.319073e-05 0)
(-5.3508035e-07 -2.4277354e-05 0)
(-5.2842829e-07 -2.5350637e-05 0)
(-5.209493e-07 -2.6408838e-05 0)
(-5.1273109e-07 -2.7450392e-05 0)
(-5.0386241e-07 -2.8473905e-05 0)
(-4.944359e-07 -2.9478158e-05 0)
(-4.8455861e-07 -3.0462096e-05 0)
(-4.7439268e-07 -3.1424784e-05 0)
(-4.6431148e-07 -3.2365198e-05 0)
(-4.554116e-07 -3.3281271e-05 0)
(-4.5076988e-07 -3.4167047e-05 0)
(-4.5261474e-07 -3.5008837e-05 0)
(2.3965227e-08 -1.4978526e-08 0)
(7.7346073e-08 -1.5796952e-07 0)
(1.2717382e-07 -4.0048958e-07 0)
(1.7342824e-07 -7.3662528e-07 0)
(2.1640153e-07 -1.1605806e-06 0)
(2.5627478e-07 -1.6663028e-06 0)
(2.9316403e-07 -2.2477879e-06 0)
(3.2716656e-07 -2.8991827e-06 0)
(3.583749e-07 -3.6148107e-06 0)
(3.8688043e-07 -4.3891761e-06 0)
(4.1277415e-07 -5.2169655e-06 0)
(4.3614689e-07 -6.0930468e-06 0)
(4.5708934e-07 -7.0124696e-06 0)
(4.7569205e-07 -7.970465e-06 0)
(4.9204545e-07 -8.9624447e-06 0)
(5.062398e-07 -9.9840015e-06 0)
(5.1836523e-07 -1.1030909e-05 0)
(5.285117e-07 -1.2099119e-05 0)
(5.36769e-07 -1.3184766e-05 0)
(5.4322674e-07 -1.4284163e-05 0)
(5.4797435e-07 -1.53938e-05 0)
(5.5110108e-07 -1.6510348e-05 0)
(5.5269595e-07 -1.7630657e-05 0)
(5.5284783e-07 -1.8751751e-05 0)
(5.5164533e-07 -1.9870836e-05 0)
(5.4917688e-07 -2.0985293e-05 0)
(5.4553068e-07 -2.209268e-05 0)
(5.4079471e-07 -2.319073e-05 0)
(5.3505675e-07 -2.4277354e-05 0)
(5.2840439e-07 -2.5350637e-05 0)
(5.2092512e-07 -2.6408838e-05 0)
(5.1270662e-07 -2.7450392e-05 0)
(5.038376e-07 -2.8473905e-05 0)
(4.9441069e-07 -2.9478158e-05 0)
(4.8453299e-07 -3.0462096e-05 0)
(4.743667e-07 -3.1424784e-05 0)
(4.6428528e-07 -3.2365198e-05 0)
(4.5538526e-07 -3.3281272e-05 0)
(4.5074342e-07 -3.4167047e-05 0)
(4.5258822e-07 -3.5008837e-05 0)
(8.465096e-08 -4.4716869e-08 0)
(2.4188259e-07 -1.8924913e-07 0)
(3.8968395e-07 -4.2956338e-07 0)
(5.2773124e-07 -7.6349011e-07 0)
(6.5630947e-07 -1.1854932e-06 0)
(7.7568711e-07 -1.6893825e-06 0)
(8.8613775e-07 -2.2691054e-06 0)
(9.8793457e-07 -2.918796e-06 0)
(1.0813507e-06 -3.6327748e-06 0)
(1.1666591e-06 -4.4055459e-06 0)
(1.2441324e-06 -5.2317954e-06 0)
(1.3140431e-06 -6.1063913e-06 0)
(1.3766632e-06 -7.0243831e-06 0)
(1.4322644e-06 -7.9810017e-06 0)
(1.4811179e-06 -8.9716589e-06 0)
(1.5234946e-06 -9.9919473e-06 0)
(1.5596649e-06 -1.103764e-05 0)
(1.5898987e-06 -1.210469e-05 0)
(1.6144652e-06 -1.3189231e-05 0)
(1.6336335e-06 -1.4287574e-05 0)
(1.6476718e-06 -1.5396212e-05 0)
(1.6568478e-06 -1.6511815e-05 0)
(1.6614287e-06 -1.763123e-05 0)
(1.661681e-06 -1.8751486e-05 0)
(1.6578706e-06 -1.9869785e-05 0)
(1.6502629e-06 -2.0983508e-05 0)
(1.6391223e-06 -2.2090215e-05 0)
(1.6247129e-06 -2.3187637e-05 0)
(1.6072979e-06 -2.4273686e-05 0)
(1.5871398e-06 -2.5346446e-05 0)
(1.5645005e-06 -2.6404178e-05 0)
(1.539641e-06 -2.7445314e-05 0)
(1.5128217e-06 -2.8468464e-05 0)
(1.4843013e-06 -2.9472411e-05 0)
(1.454336e-06 -3.0456127e-05 0)
(1.4231759e-06 -3.1418792e-05 0)
(1.3910545e-06 -3.2359856e-05 0)
(1.3581832e-06 -3.3278611e-05 0)
(1.3242852e-06 -3.4170677e-05 0)
(1.2898954e-06 -3.4985832e-05 0)
)
;

boundaryField
{
    left
    {
        nonOrthogonalCorrections true;
        type            fixedDisplacement;
        value           uniform (0 0 0);
    }
    right
    {
        type            solidTraction;
        nonOrthogonalCorrections true;
        useUndeformedArea false;
        traction        uniform (0 0 0);
        pressure        uniform 0;
        secondOrder     false;
        extrapolateValue false;
        setEffectiveTraction false;
        relaxationFactor 1;
        value           nonuniform List<vector> 4((-1.2536911e-06 -3.526782e-05 0) (-4.4028834e-07 -3.543219e-05 0) (4.4026187e-07 -3.543219e-05 0) (1.2536655e-06 -3.5267821e-05 0));
        gradient        uniform (0 0 0);
    }
    top
    {
        type            solidTraction;
        nonOrthogonalCorrections true;
        useUndeformedArea false;
        traction        uniform (0 0 0);
        pressure        uniform 0;
        secondOrder     false;
        extrapolateValue false;
        setEffectiveTraction false;
        relaxationFactor 1;
        value           nonuniform List<vector> 
40
(
(1.3932829e-07 -7.0125479e-08 0)
(3.3879811e-07 -2.1873516e-07 0)
(5.3249639e-07 -4.5783706e-07 0)
(7.1580213e-07 -7.9006396e-07 0)
(8.8683609e-07 -1.2102306e-06 0)
(1.0456557e-06 -1.7123114e-06 0)
(1.1925754e-06 -2.2902764e-06 0)
(1.3279561e-06 -2.9382635e-06 0)
(1.4521624e-06 -3.6505935e-06 0)
(1.5655587e-06 -4.4217704e-06 0)
(1.6685086e-06 -5.2464803e-06 0)
(1.7613754e-06 -6.1195909e-06 0)
(1.8445218e-06 -7.0361519e-06 0)
(1.9183103e-06 -7.991394e-06 0)
(1.9831024e-06 -8.9807289e-06 0)
(2.0392593e-06 -9.9997491e-06 0)
(2.0871417e-06 -1.1044228e-05 0)
(2.1271092e-06 -1.2110118e-05 0)
(2.1595213e-06 -1.3193552e-05 0)
(2.1847363e-06 -1.4290843e-05 0)
(2.203112e-06 -1.5398481e-05 0)
(2.2150054e-06 -1.6513138e-05 0)
(2.2207728e-06 -1.7631662e-05 0)
(2.2207695e-06 -1.8751078e-05 0)
(2.2153501e-06 -1.9868591e-05 0)
(2.2048684e-06 -2.0981582e-05 0)
(2.1896771e-06 -2.2087609e-05 0)
(2.1701282e-06 -2.3184404e-05 0)
(2.1465727e-06 -2.4269878e-05 0)
(2.1193608e-06 -2.5342116e-05 0)
(2.0888413e-06 -2.6399378e-05 0)
(2.0553627e-06 -2.7440096e-05 0)
(2.0192729e-06 -2.8462881e-05 0)
(1.9809206e-06 -2.9466515e-05 0)
(1.9406551e-06 -3.0449968e-05 0)
(1.8987956e-06 -3.1412396e-05 0)
(1.8553704e-06 -3.2353044e-05 0)
(1.8079601e-06 -3.3270248e-05 0)
(1.7438566e-06 -3.4152726e-05 0)
(1.5685795e-06 -3.4949072e-05 0)
)
;
        gradient        uniform (0 0 0);
    }
    bottom
    {
        type            solidTraction;
        nonOrthogonalCorrections true;
        useUndeformedArea false;
        traction        uniform (0 0 0);
        pressure        uniform 0;
        secondOrder     false;
        extrapolateValue false;
        setEffectiveTraction false;
        relaxationFactor 1;
        value           nonuniform List<vector> 
40
(
(-1.3932893e-07 -7.0125898e-08 0)
(-3.3879961e-07 -2.1873576e-07 0)
(-5.3249882e-07 -4.5783771e-07 0)
(-7.1580553e-07 -7.9006462e-07 0)
(-8.868405e-07 -1.2102313e-06 0)
(-1.0456611e-06 -1.712312e-06 0)
(-1.1925818e-06 -2.290277e-06 0)
(-1.3279635e-06 -2.9382641e-06 0)
(-1.4521709e-06 -3.6505942e-06 0)
(-1.5655681e-06 -4.4217711e-06 0)
(-1.668519e-06 -5.2464809e-06 0)
(-1.7613868e-06 -6.1195916e-06 0)
(-1.8445342e-06 -7.0361525e-06 0)
(-1.9183236e-06 -7.9913946e-06 0)
(-1.9831166e-06 -8.9807294e-06 0)
(-2.0392744e-06 -9.9997496e-06 0)
(-2.0871575e-06 -1.1044228e-05 0)
(-2.1271258e-06 -1.2110118e-05 0)
(-2.1595386e-06 -1.3193552e-05 0)
(-2.1847543e-06 -1.4290843e-05 0)
(-2.2031307e-06 -1.5398482e-05 0)
(-2.2150247e-06 -1.6513139e-05 0)
(-2.2207926e-06 -1.7631662e-05 0)
(-2.2207899e-06 -1.8751079e-05 0)
(-2.2153709e-06 -1.9868592e-05 0)
(-2.2048896e-06 -2.0981583e-05 0)
(-2.1896986e-06 -2.2087609e-05 0)
(-2.1701501e-06 -2.3184404e-05 0)
(-2.146595e-06 -2.4269879e-05 0)
(-2.1193833e-06 -2.5342117e-05 0)
(-2.0888642e-06 -2.6399378e-05 0)
(-2.055386e-06 -2.7440096e-05 0)
(-2.0192966e-06 -2.8462881e-05 0)
(-1.9809446e-06 -2.9466516e-05 0)
(-1.9406794e-06 -3.0449968e-05 0)
(-1.8988202e-06 -3.1412396e-05 0)
(-1.8553954e-06 -3.2353044e-05 0)
(-1.8079854e-06 -3.3270248e-05 0)
(-1.7438821e-06 -3.4152726e-05 0)
(-1.568605e-06 -3.4949071e-05 0)
)
;
        gradient        uniform (0 0 0);
    }
    frontAndBack
    {
        type            empty;
    }
}


// ************************************************************************* //
