/*--------------------------------*- C++ -*----------------------------------*\
| =========                 |                                                 |
| \\      /  F ield         | OpenFOAM: The Open Source CFD Toolbox           |
|  \\    /   O peration     | Version:  2512                                  |
|   \\  /    A nd           | Website:  www.openfoam.com                      |
|    \\/     M anipulation  |                                                 |
\*---------------------------------------------------------------------------*/
FoamFile
{
    version     2.0;
    format      ascii;
    arch        "LSB;label=32;scalar=64";
    class       volSymmTensorField;
    location    "1";
    object      epsilon;
}
// * * * * * * * * * * * * * * * * * * * * * * * * * * * * * * * * * * * * * //

dimensions      [0 0 0 0 0 0 0];

internalField   nonuniform List<symmTensor> 
160
(
(-5.574097e-06 -9.145607e-08 -5.1698788e-22 1.5677187e-06 2.5849394e-22 0)
(-6.0275067e-06 -2.7691819e-07 -1.0339758e-21 1.7493285e-06 -2.3264455e-21 0)
(-5.7351741e-06 -2.7611867e-07 -2.0679515e-21 1.7241957e-06 0 0)
(-5.3779608e-06 -2.7710555e-07 1.0339758e-21 1.6167669e-06 8.2718061e-21 0)
(-5.0072898e-06 -2.7095904e-07 -2.0679515e-21 1.5050467e-06 -4.1359031e-21 0)
(-4.6443603e-06 -2.6361797e-07 -4.1359031e-21 1.3958086e-06 0 0)
(-4.2918398e-06 -2.5598177e-07 0 1.2899598e-06 4.1359031e-21 0)
(-3.9501161e-06 -2.4829449e-07 2.0679515e-21 1.1874204e-06 -4.1359031e-21 0)
(-3.6191946e-06 -2.4059795e-07 2.0679515e-21 1.0881389e-06 0 0)
(-3.2990595e-06 -2.3290032e-07 4.1359031e-21 9.9209702e-07 0 0)
(-2.9896981e-06 -2.2520331e-07 4.1359031e-21 8.9928799e-07 0 0)
(-2.6911001e-06 -2.1750746e-07 1.0339758e-20 8.0970808e-07 -2.4815418e-20 0)
(-2.4032545e-06 -2.0981301e-07 1.6543612e-20 7.2335395e-07 4.9630837e-20 0)
(-2.1261502e-06 -2.0212013e-07 -4.1359031e-21 6.4022214e-07 -6.6174449e-20 0)
(-1.8597748e-06 -1.9442893e-07 2.0679515e-21 5.6030902e-07 -1.6543612e-20 0)
(-1.6041156e-06 -1.8673952e-07 1.6543612e-20 4.8361072e-07 8.2718061e-20 0)
(-1.3591589e-06 -1.7905202e-07 -4.1359031e-21 4.1012313e-07 3.3087225e-20 0)
(-1.1248904e-06 -1.7136652e-07 4.1359031e-21 3.3984196e-07 4.9630837e-20 0)
(-9.01295e-07 -1.636831e-07 -8.2718061e-21 2.7276271e-07 0 0)
(-6.8835709e-07 -1.5600186e-07 -1.6543612e-20 2.0888067e-07 3.3087225e-20 0)
(-4.8606043e-07 -1.4832287e-07 4.1359031e-21 1.4819099e-07 0 0)
(-2.9438824e-07 -1.4064621e-07 1.2407709e-20 9.0688631e-08 0 0)
(-1.1332325e-07 -1.3297194e-07 0 3.6368408e-08 6.6174449e-20 0)
(5.7152287e-08 -1.2530015e-07 -1.2407709e-20 -1.4775e-08 -6.6174449e-20 0)
(2.1705653e-07 -1.1763093e-07 8.2718061e-21 -6.2747044e-08 1.9852335e-19 0)
(3.6640804e-07 -1.0996439e-07 8.2718061e-21 -1.0755331e-07 1.323489e-19 0)
(5.0522584e-07 -1.0230079e-07 8.2718061e-21 -1.4919949e-07 -3.3087225e-20 0)
(6.3352949e-07 -9.4640527e-08 -8.2718061e-21 -1.8769144e-07 1.9852335e-19 0)
(7.5133923e-07 -8.6984265e-08 1.6543612e-20 -2.2303495e-07 -1.323489e-19 0)
(8.5867509e-07 -7.9332583e-08 4.1359031e-21 -2.552352e-07 0 0)
(9.5555394e-07 -7.1686895e-08 4.1359031e-21 -2.8429499e-07 -6.6174449e-20 0)
(1.0419822e-06 -6.4053736e-08 -4.1359031e-21 -3.1020855e-07 0 0)
(1.1179363e-06 -5.646025e-08 0 -3.3293717e-07 -6.6174449e-20 0)
(1.1833229e-06 -4.9012953e-08 4.1359031e-21 -3.5231718e-07 -1.9852335e-19 0)
(1.2381227e-06 -4.2190103e-08 0 -3.6777123e-07 6.6174449e-20 0)
(1.2843539e-06 -3.8091646e-08 -4.1359031e-21 -3.7817793e-07 -2.646978e-19 0)
(1.3453544e-06 -4.7815074e-08 4.1359031e-21 -3.8535164e-07 -1.323489e-19 0)
(1.5397509e-06 -1.000302e-07 -2.0679515e-21 -4.5690784e-07 -6.6174449e-20 0)
(2.7983791e-06 -4.334396e-07 2.0679515e-21 -9.1845908e-07 -1.323489e-19 0)
(5.6555385e-06 1.6811028e-07 2.0679515e-21 -5.5792729e-06 -2.646978e-19 0)
(-2.15773e-06 -8.1437889e-07 -2.5849394e-22 3.0786374e-07 3.5542917e-22 0)
(-2.0599492e-06 -6.9445511e-07 -9.0472879e-22 6.1249244e-07 -7.7548182e-22 0)
(-1.9282639e-06 -6.4077796e-07 -1.8094576e-21 5.8711943e-07 2.5849394e-21 0)
(-1.7976995e-06 -6.1130524e-07 -1.2924697e-21 5.441277e-07 0 0)
(-1.6722408e-06 -5.915772e-07 -2.0679515e-21 5.0430954e-07 1.2407709e-20 0)
(-1.5509369e-06 -5.7399415e-07 -4.1359031e-21 4.6732849e-07 8.2718061e-21 0)
(-1.433388e-06 -5.5684665e-07 -2.5849394e-21 4.319323e-07 -8.2718061e-21 0)
(-1.3194738e-06 -5.3977825e-07 -2.5849394e-21 3.9773218e-07 1.6543612e-20 0)
(-1.209164e-06 -5.2272898e-07 -2.0679515e-21 3.6463381e-07 2.4815418e-20 0)
(-1.1024496e-06 -5.0569011e-07 -7.2378304e-21 3.3261766e-07 -1.6543612e-20 0)
(-9.9932645e-07 -4.8866097e-07 -5.1698788e-21 3.016794e-07 -1.6543612e-20 0)
(-8.9979081e-07 -4.7164209e-07 -3.1019273e-21 2.7181746e-07 -1.323489e-19 0)
(-8.0383913e-07 -4.5463417e-07 -6.2038546e-21 2.4303064e-07 3.3087225e-20 0)
(-7.1146761e-07 -4.3763801e-07 -4.1359031e-21 2.1531779e-07 -6.6174449e-20 0)
(-6.2267221e-07 -4.2065436e-07 -4.1359031e-21 1.8867769e-07 1.6543612e-20 0)
(-5.3744864e-07 -4.0368399e-07 -8.2718061e-21 1.6310904e-07 4.9630837e-20 0)
(-4.5579236e-07 -3.8672762e-07 -9.3057819e-21 1.386105e-07 -1.1580529e-19 0)
(-3.776986e-07 -3.6978596e-07 -9.3057819e-21 1.1518064e-07 0 0)
(-3.0316237e-07 -3.5285965e-07 -4.1359031e-21 9.2817961e-08 -9.9261674e-20 0)
(-2.3217846e-07 -3.3594929e-07 -5.1698788e-21 7.152091e-08 1.6543612e-19 0)
(-1.6474148e-07 -3.1905547e-07 -8.2718061e-21 5.1287873e-08 -3.3087225e-20 0)
(-1.0084585e-07 -3.0217871e-07 -8.2718061e-21 3.2117182e-08 3.3087225e-20 0)
(-4.0485826e-08 -2.8531951e-07 -6.2038546e-21 1.4007121e-08 -6.6174449e-20 0)
(1.6344483e-08 -2.6847834e-07 -7.2378304e-21 -3.044076e-09 9.9261674e-20 0)
(6.9651106e-08 -2.5165566e-07 -4.1359031e-21 -1.9038213e-08 0 0)
(1.1944021e-07 -2.3485197e-07 -9.3057819e-21 -3.397715e-08 0 0)
(1.6571811e-07 -2.1806787e-07 -4.1359031e-21 -4.7862787e-08 3.3087225e-20 0)
(2.0849128e-07 -2.01304e-07 -4.1359031e-21 -6.0697073e-08 -3.3087225e-20 0)
(2.4776619e-07 -1.8456048e-07 -7.2378304e-21 -7.2481759e-08 -6.6174449e-20 0)
(2.8354876e-07 -1.678355e-07 -9.3057819e-21 -8.3217872e-08 1.323489e-19 0)
(3.158431e-07 -1.5112374e-07 -2.0679515e-21 -9.2904456e-08 6.6174449e-20 0)
(3.4464843e-07 -1.3441448e-07 -7.2378304e-21 -1.0153392e-07 -3.9704669e-19 0)
(3.6994849e-07 -1.1768152e-07 -3.1019273e-21 -1.0906955e-07 1.9852335e-19 0)
(3.9166932e-07 -1.0081585e-07 -4.1359031e-21 -1.1532971e-07 -1.323489e-19 0)
(4.0949904e-07 -8.3227992e-08 -7.2378304e-21 -1.1945036e-07 0 0)
(4.2219121e-07 -6.1786229e-08 -4.1359031e-21 -1.177058e-07 -6.6174449e-20 0)
(4.2517815e-07 -2.06418e-08 -6.2038546e-21 -9.7744511e-08 -6.6174449e-20 0)
(4.072777e-07 1.0300617e-07 -5.1698788e-21 -3.5253988e-08 -1.9852335e-19 0)
(3.6105314e-07 5.4887622e-07 -4.1359031e-21 -9.3343261e-08 6.6174449e-20 0)
(6.6026845e-07 1.1721434e-06 -7.2378304e-21 -1.7732582e-06 1.323489e-19 0)
(2.1577019e-06 -8.1437701e-07 -1.9387046e-22 -3.0786005e-07 3.2311743e-23 0)
(2.0599192e-06 -6.9445413e-07 3.8774091e-22 -6.12484e-07 -1.5509636e-21 0)
(1.9282334e-06 -6.4077665e-07 0 -5.8710971e-07 -1.0339758e-21 0)
(1.7976687e-06 -6.1130336e-07 7.7548182e-22 -5.4411771e-07 1.0339758e-21 0)
(1.67221e-06 -5.9157476e-07 1.0339758e-21 -5.0429952e-07 -8.2718061e-21 0)
(1.5509061e-06 -5.7399119e-07 -5.1698788e-22 -4.6731849e-07 -8.2718061e-21 0)
(1.4333572e-06 -5.5684321e-07 -1.5509636e-21 -4.3192233e-07 0 0)
(1.3194431e-06 -5.3977434e-07 5.1698788e-22 -3.9772225e-07 8.2718061e-21 0)
(1.2091336e-06 -5.2272463e-07 0 -3.6462396e-07 8.2718061e-21 0)
(1.1024197e-06 -5.0568532e-07 -1.0339758e-21 -3.3260791e-07 8.2718061e-21 0)
(9.99297e-07 -4.8865577e-07 1.0339758e-21 -3.016698e-07 -1.6543612e-20 0)
(8.9976201e-07 -4.7163648e-07 0 -2.7180803e-07 -5.7902643e-20 0)
(8.0381109e-07 -4.5462818e-07 -1.0339758e-21 -2.4302144e-07 4.9630837e-20 0)
(7.1144045e-07 -4.3763163e-07 7.2378304e-21 -2.1530885e-07 -3.3087225e-20 0)
(6.2264602e-07 -4.2064763e-07 4.1359031e-21 -1.8866905e-07 1.8197973e-19 0)
(5.3742352e-07 -4.0367692e-07 3.1019273e-21 -1.6310075e-07 -8.2718061e-20 0)
(4.557684e-07 -3.8672024e-07 3.1019273e-21 -1.3860259e-07 -6.6174449e-20 0)
(3.7767587e-07 -3.6977827e-07 -2.0679515e-21 -1.1517313e-07 9.9261674e-20 0)
(3.0314095e-07 -3.5285168e-07 1.0339758e-21 -9.2810885e-08 0 0)
(2.321584e-07 -3.3594107e-07 -9.3057819e-21 -7.1514287e-08 1.9852335e-19 0)
(1.6472284e-07 -3.1904702e-07 4.1359031e-21 -5.128172e-08 0 0)
(1.0082866e-07 -3.0217004e-07 1.0339758e-21 -3.2111508e-08 3.3087225e-20 0)
(4.0470092e-08 -2.8531066e-07 2.0679515e-21 -1.4001926e-08 -6.6174449e-20 0)
(-1.6358783e-08 -2.6846932e-07 0 3.0488057e-09 3.3087225e-20 0)
(-6.9664053e-08 -2.516465e-07 2.0679515e-21 1.904251e-08 3.3087225e-20 0)
(-1.1945195e-07 -2.3484269e-07 0 3.3981044e-08 -6.6174449e-20 0)
(-1.6572882e-07 -2.180585e-07 -1.0339758e-21 4.7866229e-08 -3.3087225e-20 0)
(-2.0850113e-07 -2.0129465e-07 -3.1019273e-21 6.0699774e-08 6.6174449e-20 0)
(-2.477753e-07 -1.8455122e-07 2.0679515e-21 7.2483255e-08 -1.9852335e-19 0)
(-2.8355735e-07 -1.6782631e-07 1.0339758e-21 8.3217982e-08 0 0)
(-3.1585169e-07 -1.5111443e-07 3.1019273e-21 9.2903968e-08 6.6174449e-20 0)
(-3.4465773e-07 -1.3440488e-07 -8.2718061e-21 1.0153468e-07 -6.6174449e-20 0)
(-3.6995908e-07 -1.1767184e-07 -2.0679515e-21 1.0907302e-07 1.323489e-19 0)
(-3.9168076e-07 -1.0080655e-07 -3.1019273e-21 1.1533514e-07 -1.323489e-19 0)
(-4.0950995e-07 -8.3219356e-08 0 1.194549e-07 -1.323489e-19 0)
(-4.222001e-07 -6.17781e-08 0 1.1770688e-07 1.9852335e-19 0)
(-4.2518432e-07 -2.0633764e-08 -1.0339758e-21 9.7742394e-08 -6.6174449e-20 0)
(-4.0728201e-07 1.0301415e-07 0 3.5251207e-08 6.6174449e-20 0)
(-3.6105622e-07 5.488835e-07 -2.0679515e-21 9.3341084e-08 0 0)
(-6.602687e-07 1.1721483e-06 3.1019273e-21 1.7732526e-06 -1.323489e-19 0)
(5.5740722e-06 -9.1455083e-08 9.0472879e-22 -1.5677121e-06 -3.2311743e-22 0)
(6.0274792e-06 -2.7691739e-07 3.1019273e-21 -1.7493206e-06 -2.5849394e-22 0)
(5.7351454e-06 -2.7611747e-07 2.5849394e-21 -1.7241869e-06 1.5509636e-21 0)
(5.3779314e-06 -2.7710371e-07 2.0679515e-21 -1.6167578e-06 4.1359031e-21 0)
(5.0072601e-06 -2.7095661e-07 4.1359031e-21 -1.5050375e-06 8.2718061e-21 0)
(4.6443304e-06 -2.6361501e-07 4.1359031e-21 -1.3957994e-06 0 0)
(4.29181e-06 -2.5597833e-07 2.0679515e-21 -1.2899506e-06 -1.6543612e-20 0)
(3.9500864e-06 -2.4829059e-07 6.2038546e-21 -1.1874112e-06 3.3087225e-20 0)
(3.6191652e-06 -2.4059359e-07 0 -1.0881298e-06 -8.2718061e-21 0)
(3.2990304e-06 -2.3289553e-07 8.2718061e-21 -9.9208801e-07 0 0)
(2.9896696e-06 -2.2519811e-07 8.2718061e-21 -8.9927913e-07 -4.9630837e-20 0)
(2.6910721e-06 -2.1750185e-07 8.2718061e-21 -8.096994e-07 -4.1359031e-20 0)
(2.4032273e-06 -2.0980702e-07 8.2718061e-21 -7.2334548e-07 -3.3087225e-20 0)
(2.1261238e-06 -2.0211376e-07 6.2038546e-21 -6.4021393e-07 -1.6543612e-20 0)
(1.8597494e-06 -1.944222e-07 1.8611564e-20 -5.6030109e-07 3.3087225e-20 0)
(1.6040912e-06 -1.8673245e-07 1.6543612e-20 -4.836031e-07 1.6543612e-20 0)
(1.3591356e-06 -1.7904463e-07 0 -4.1011586e-07 -1.6543612e-20 0)
(1.1248683e-06 -1.7135883e-07 1.6543612e-20 -3.3983506e-07 -3.3087225e-20 0)
(9.0127414e-07 -1.6367513e-07 1.2407709e-20 -2.727562e-07 0 0)
(6.8833754e-07 -1.5599364e-07 4.1359031e-21 -2.0887457e-07 -3.3087225e-20 0)
(4.8604224e-07 -1.4831441e-07 1.2407709e-20 -1.4818532e-07 -9.9261674e-20 0)
(2.9437144e-07 -1.4063754e-07 8.2718061e-21 -9.0683389e-08 9.9261674e-20 0)
(1.1330785e-07 -1.3296309e-07 1.2407709e-20 -3.6363601e-08 3.3087225e-20 0)
(-5.716631e-08 -1.2529113e-07 2.4815418e-20 1.4779382e-08 0 0)
(-2.1706924e-07 -1.1762176e-07 4.1359031e-21 6.275102e-08 -9.9261674e-20 0)
(-3.6641953e-07 -1.0995509e-07 4.1359031e-21 1.075569e-07 -3.3087225e-20 0)
(-5.0523623e-07 -1.0229139e-07 1.2407709e-20 1.4920268e-07 -3.3087225e-20 0)
(-6.3353903e-07 -9.4631174e-08 1.2407709e-20 1.8769415e-07 -6.6174449e-20 0)
(-7.5134836e-07 -8.6975051e-08 2.0679515e-20 2.2303709e-07 -1.9852335e-19 0)
(-8.5868438e-07 -7.93235e-08 1.6543612e-20 2.5523688e-07 0 0)
(-9.5556379e-07 -7.1677633e-08 1.2407709e-20 2.8429669e-07 -1.9852335e-19 0)
(-1.0419924e-06 -6.4043992e-08 1.6543612e-20 3.1021101e-07 6.6174449e-20 0)
(-1.1179465e-06 -5.6450324e-08 8.2718061e-21 3.3294071e-07 -1.9852335e-19 0)
(-1.1833328e-06 -4.9003559e-08 1.2407709e-20 3.5232123e-07 -1.323489e-19 0)
(-1.2381324e-06 -4.2181637e-08 8.2718061e-21 3.677746e-07 -6.6174449e-20 0)
(-1.2843637e-06 -3.8083826e-08 1.0339758e-20 3.7817975e-07 -2.646978e-19 0)
(-1.3453631e-06 -4.7807094e-08 8.2718061e-21 3.8535216e-07 0 0)
(-1.5397571e-06 -1.0002194e-07 0 4.5690796e-07 0 0)
(-2.7983823e-06 -4.3343206e-07 1.2407709e-20 9.1845925e-07 1.323489e-19 0)
(-5.65554e-06 1.681146e-07 8.2718061e-21 5.5792744e-06 3.3087225e-19 0)
)
;

boundaryField
{
    left
    {
        type            calculated;
        value           nonuniform List<symmTensor> 4((-6.8282462e-06 -3.9528159e-07 0 1.4121617e-06 0 0) (-1.9339122e-06 -5.993141e-07 0 0 0 0) (1.933886e-06 -5.9931147e-07 0 0 0 0) (6.8282179e-06 -3.9527738e-07 0 -1.4121557e-06 0 0));
    }
    right
    {
        type            calculated;
        value           nonuniform List<symmTensor> 4((2.9537731e-06 2.6133204e-09 0 -9.8466906e-06 0 0) (1.00476e-06 3.9093494e-09 0 -3.3494627e-06 0 0) (-1.0047573e-06 3.90932e-09 0 3.3494536e-06 0 0) (-2.953774e-06 2.6132879e-09 0 9.8466936e-06 0 0));
    }
    top
    {
        type            calculated;
        value           nonuniform List<symmTensor> 
40
(
(6.8327265e-06 -1.8643055e-10 0 -2.0497459e-06 0 0)
(7.9351047e-06 -3.5728764e-10 0 -2.3804403e-06 0 0)
(7.6138084e-06 -5.7020141e-10 0 -2.2840489e-06 0 0)
(7.1605096e-06 -7.9376027e-10 0 -2.1480593e-06 0 0)
(6.6700846e-06 -1.0169301e-09 0 -2.0009327e-06 0 0)
(6.186833e-06 -1.2376435e-09 0 -1.8559584e-06 0 0)
(5.7168898e-06 -1.4551043e-09 0 -1.7149769e-06 0 0)
(5.2612709e-06 -1.6687296e-09 0 -1.578293e-06 0 0)
(4.8200477e-06 -1.8779617e-09 0 -1.445928e-06 0 0)
(4.3932062e-06 -2.0822525e-09 0 -1.3178777e-06 0 0)
(3.9807302e-06 -2.2810659e-09 0 -1.1941373e-06 0 0)
(3.5826056e-06 -2.4738798e-09 0 -1.0747025e-06 0 0)
(3.1988182e-06 -2.6601878e-09 0 -9.5956912e-07 0 0)
(2.8293528e-06 -2.8395006e-09 0 -8.4873254e-07 0 0)
(2.4741934e-06 -3.011347e-09 0 -7.4218791e-07 0 0)
(2.1333226e-06 -3.1752755e-09 0 -6.3993008e-07 0 0)
(1.8067223e-06 -3.3308555e-09 0 -5.4195355e-07 0 0)
(1.4943733e-06 -3.4776781e-09 0 -4.4825259e-07 0 0)
(1.1962555e-06 -3.6153575e-09 0 -3.5882115e-07 0 0)
(9.1234812e-07 -3.7435319e-09 0 -2.7365297e-07 0 0)
(6.4262937e-07 -3.8618646e-09 0 -1.9274152e-07 0 0)
(3.8707688e-07 -3.9700444e-09 0 -1.1608007e-07 0 0)
(1.4566756e-07 -4.0677871e-09 0 -4.3661686e-08 0 0)
(-8.1622277e-08 -4.1548357e-09 0 2.4520752e-08 0 0)
(-2.9481691e-07 -4.2309612e-09 0 8.8474539e-08 0 0)
(-4.939411e-07 -4.2959631e-09 0 1.4820711e-07 0 0)
(-6.7902022e-07 -4.3496693e-09 0 2.0372611e-07 0 0)
(-8.5008077e-07 -4.3919376e-09 0 2.5503948e-07 0 0)
(-1.0071507e-06 -4.4226586e-09 0 3.0215561e-07 0 0)
(-1.1502583e-06 -4.4417608e-09 0 3.4508302e-07 0 0)
(-1.2794283e-06 -4.4492108e-09 0 3.8382918e-07 0 0)
(-1.394674e-06 -4.4450025e-09 0 4.1839799e-07 0 0)
(-1.4959802e-06 -4.4291451e-09 0 4.4878499e-07 0 0)
(-1.58331e-06 -4.4016754e-09 0 4.7497908e-07 0 0)
(-1.6572505e-06 -4.3626975e-09 0 4.9715643e-07 0 0)
(-1.7243314e-06 -4.3121593e-09 0 5.1727574e-07 0 0)
(-1.8403603e-06 -4.2475279e-09 0 5.5207806e-07 0 0)
(-2.2649519e-06 -4.1437488e-09 0 6.7944153e-07 0 0)
(-4.8746536e-06 -3.8846158e-09 0 1.4622856e-06 0 0)
(-9.9905424e-06 -2.5878584e-09 0 2.9969256e-06 0 0)
)
;
    }
    bottom
    {
        type            calculated;
        value           nonuniform List<symmTensor> 
40
(
(-6.8327481e-06 -1.8641031e-10 0 2.0497524e-06 0 0)
(-7.9351305e-06 -3.5727979e-10 0 2.3804481e-06 0 0)
(-7.613836e-06 -5.7019933e-10 0 2.2840572e-06 0 0)
(-7.1605383e-06 -7.9375975e-10 0 2.1480679e-06 0 0)
(-6.6701137e-06 -1.01693e-09 0 2.0009414e-06 0 0)
(-6.1868624e-06 -1.2376435e-09 0 1.8559672e-06 0 0)
(-5.7169192e-06 -1.4551044e-09 0 1.7149858e-06 0 0)
(-5.2613001e-06 -1.6687299e-09 0 1.5783018e-06 0 0)
(-4.8200767e-06 -1.8779621e-09 0 1.4459367e-06 0 0)
(-4.3932348e-06 -2.082253e-09 0 1.3178863e-06 0 0)
(-3.9807583e-06 -2.2810666e-09 0 1.1941457e-06 0 0)
(-3.5826331e-06 -2.4738807e-09 0 1.0747108e-06 0 0)
(-3.198845e-06 -2.6601889e-09 0 9.5957718e-07 0 0)
(-2.8293788e-06 -2.8395018e-09 0 8.4874035e-07 0 0)
(-2.4742185e-06 -3.0113484e-09 0 7.4219545e-07 0 0)
(-2.1333467e-06 -3.1752772e-09 0 6.3993731e-07 0 0)
(-1.8067453e-06 -3.3308573e-09 0 5.4196046e-07 0 0)
(-1.4943951e-06 -3.47768e-09 0 4.4825914e-07 0 0)
(-1.1962761e-06 -3.6153595e-09 0 3.5882734e-07 0 0)
(-9.1236741e-07 -3.743534e-09 0 2.7365877e-07 0 0)
(-6.4264733e-07 -3.8618667e-09 0 1.9274691e-07 0 0)
(-3.8709348e-07 -3.9700465e-09 0 1.1608506e-07 0 0)
(-1.4568279e-07 -4.0677892e-09 0 4.3666263e-08 0 0)
(8.1608387e-08 -4.1548377e-09 0 -2.4516579e-08 0 0)
(2.9480431e-07 -4.2309631e-09 0 -8.8470753e-08 0 0)
(4.9392973e-07 -4.2959649e-09 0 -1.482037e-07 0 0)
(6.7901004e-07 -4.3496715e-09 0 -2.0372305e-07 0 0)
(8.5007146e-07 -4.3919411e-09 0 -2.5503668e-07 0 0)
(1.0071415e-06 -4.4226633e-09 0 -3.0215287e-07 0 0)
(1.1502485e-06 -4.4417647e-09 0 -3.4508008e-07 0 0)
(1.2794175e-06 -4.4492096e-09 0 -3.8382593e-07 0 0)
(1.3946631e-06 -4.4449943e-09 0 -4.1839472e-07 0 0)
(1.4959704e-06 -4.4291355e-09 0 -4.4878205e-07 0 0)
(1.5833014e-06 -4.4016735e-09 0 -4.749765e-07 0 0)
(1.6572418e-06 -4.3627068e-09 0 -4.9715381e-07 0 0)
(1.7243211e-06 -4.3121734e-09 0 -5.1727267e-07 0 0)
(1.8403498e-06 -4.2475349e-09 0 -5.520749e-07 0 0)
(2.2649445e-06 -4.1437466e-09 0 -6.7943932e-07 0 0)
(4.8746505e-06 -3.884615e-09 0 -1.4622846e-06 0 0)
(9.9905404e-06 -2.5878686e-09 0 -2.996925e-06 0 0)
)
;
    }
    frontAndBack
    {
        type            empty;
    }
}


// ************************************************************************* //
