/*--------------------------------*- C++ -*----------------------------------*\
| =========                 |                                                 |
| \\      /  F ield         | OpenFOAM: The Open Source CFD Toolbox           |
|  \\    /   O peration     | Version:  2512                                  |
|   \\  /    A nd           | Website:  www.openfoam.com                      |
|    \\/     M anipulation  |                                                 |
\*---------------------------------------------------------------------------*/
FoamFile
{
    version     2.0;
    format      ascii;
    arch        "LSB;label=32;scalar=64";
    class       volScalarField;
    location    "1";
    object      epsilonEq;
}
// * * * * * * * * * * * * * * * * * * * * * * * * * * * * * * * * * * * * * //

dimensions      [0 0 0 0 0 0 0];

internalField   nonuniform List<scalar> 
160
(
4.3354871e-06
4.721823e-06
4.5206863e-06
4.2406325e-06
3.9493785e-06
3.6642104e-06
3.3873468e-06
3.11903e-06
2.8592513e-06
2.6080018e-06
2.3652825e-06
2.131101e-06
1.9054707e-06
1.6884134e-06
1.4799647e-06
1.2801821e-06
1.0891618e-06
9.0707231e-07
7.3422622e-07
5.7126015e-07
4.1965282e-07
2.8357292e-07
1.780522e-07
1.5118715e-07
2.1723668e-07
3.1376387e-07
4.1327388e-07
5.0875283e-07
5.9797024e-07
6.8003692e-07
7.5453685e-07
8.2124479e-07
8.7999865e-07
9.3058939e-07
9.727143e-07
1.0072296e-06
1.0506649e-06
1.2134688e-06
2.2908803e-06
6.4893752e-06
1.8140813e-06
1.8045676e-06
1.6900784e-06
1.5814281e-06
1.4823308e-06
1.3883653e-06
1.2979519e-06
1.2107079e-06
1.1265827e-06
1.0456027e-06
9.678174e-07
8.9329001e-07
8.2209907e-07
7.5434169e-07
6.9013834e-07
6.2963856e-07
5.730278e-07
5.2053449e-07
4.7243638e-07
4.2906279e-07
3.907876e-07
3.5800447e-07
3.3107506e-07
3.1024579e-07
2.955458e-07
2.8670155e-07
2.8311431e-07
2.8392289e-07
2.8812646e-07
2.947147e-07
3.0276246e-07
3.1147458e-07
3.2017703e-07
3.2820618e-07
3.3443376e-07
3.3549104e-07
3.2191616e-07
3.079011e-07
6.9171912e-07
1.9858372e-06
1.814063e-06
1.8045462e-06
1.690056e-06
1.5814053e-06
1.4823077e-06
1.3883421e-06
1.2979286e-06
1.2106847e-06
1.1265595e-06
1.0455798e-06
9.677948e-07
8.9326784e-07
8.2207741e-07
7.5432065e-07
6.90118e-07
6.2961902e-07
5.7300914e-07
5.2051681e-07
4.7241978e-07
4.2904735e-07
3.9077342e-07
3.5799164e-07
3.3106364e-07
3.1023583e-07
2.9553729e-07
2.8669445e-07
2.8310859e-07
2.8391842e-07
2.8812299e-07
2.9471197e-07
3.0276065e-07
3.1147461e-07
3.2017994e-07
3.2821162e-07
3.3443965e-07
3.3549519e-07
3.219186e-07
3.0790634e-07
6.9172725e-07
1.9858385e-06
4.3354679e-06
4.7218015e-06
4.5206636e-06
4.2406092e-06
3.9493548e-06
3.6641866e-06
3.3873229e-06
3.1190062e-06
2.8592276e-06
2.6079783e-06
2.3652594e-06
2.1310783e-06
1.9054484e-06
1.6883917e-06
1.4799436e-06
1.2801616e-06
1.0891421e-06
9.0705328e-07
7.3420789e-07
5.7124247e-07
4.196357e-07
2.8355629e-07
1.7803721e-07
1.511804e-07
2.1723791e-07
3.1376784e-07
4.1327864e-07
5.0875777e-07
5.9797526e-07
6.8004225e-07
7.5454282e-07
8.2125149e-07
8.80006e-07
9.3059697e-07
9.7272165e-07
1.0072363e-06
1.0506703e-06
1.213472e-06
2.2908806e-06
6.4893771e-06
)
;

boundaryField
{
    left
    {
        type            calculated;
        value           nonuniform List<scalar> 4(5.1090542e-06 1.463261e-06 1.4632442e-06 5.1090327e-06);
    }
    right
    {
        type            calculated;
        value           nonuniform List<scalar> 4(7.7392794e-06 2.6326071e-06 2.6325999e-06 7.7392817e-06);
    }
    top
    {
        type            calculated;
        value           nonuniform List<scalar> 
40
(
5.3704112e-06
6.2368591e-06
5.9843229e-06
5.6280353e-06
5.2425674e-06
4.8627379e-06
4.4933687e-06
4.1352584e-06
3.7884632e-06
3.4529719e-06
3.1287719e-06
2.8158521e-06
2.5142014e-06
2.2238078e-06
1.9446587e-06
1.6767407e-06
1.4200394e-06
1.1745401e-06
9.4022714e-07
7.1708479e-07
5.0509753e-07
3.0425303e-07
1.1457189e-07
6.4348672e-08
2.317875e-07
3.8827488e-07
5.3373472e-07
6.6817977e-07
7.9162993e-07
9.0410671e-07
1.0056293e-06
1.0962077e-06
1.1758301e-06
1.2444674e-06
1.302581e-06
1.3553029e-06
1.4464966e-06
1.7802124e-06
3.8313738e-06
7.8523438e-06
)
;
    }
    bottom
    {
        type            calculated;
        value           nonuniform List<scalar> 
40
(
5.3704282e-06
6.2368794e-06
5.9843445e-06
5.6280578e-06
5.2425903e-06
4.8627609e-06
4.4933918e-06
4.1352814e-06
3.788486e-06
3.4529944e-06
3.128794e-06
2.8158738e-06
2.5142224e-06
2.2238282e-06
1.9446784e-06
1.6767596e-06
1.4200575e-06
1.1745572e-06
9.4024332e-07
7.1709996e-07
5.0511164e-07
3.0426608e-07
1.1458385e-07
6.4337782e-08
2.3177759e-07
3.8826595e-07
5.3372672e-07
6.6817245e-07
7.9162275e-07
9.0409901e-07
1.0056208e-06
1.0961991e-06
1.1758224e-06
1.2444606e-06
1.3025741e-06
1.3552948e-06
1.4464883e-06
1.7802066e-06
3.8313714e-06
7.8523422e-06
)
;
    }
    frontAndBack
    {
        type            empty;
    }
}


// ************************************************************************* //
