/*--------------------------------*- C++ -*----------------------------------*\
| =========                 |                                                 |
| \\      /  F ield         | OpenFOAM: The Open Source CFD Toolbox           |
|  \\    /   O peration     | Version:  2512                                  |
|   \\  /    A nd           | Website:  www.openfoam.com                      |
|    \\/     M anipulation  |                                                 |
\*---------------------------------------------------------------------------*/
FoamFile
{
    version     2.0;
    format      ascii;
    arch        "LSB;label=32;scalar=64";
    class       pointVectorField;
    location    "1";
    object      pointD;
}
// * * * * * * * * * * * * * * * * * * * * * * * * * * * * * * * * * * * * * //

dimensions      [0 1 0 0 0 0 0];

internalField   nonuniform List<vector> 
410
(
(-7.0208281e-08 -3.5304042e-08 0)
(-2.4102698e-07 -1.4544033e-07 0)
(-4.3940525e-07 -3.4076899e-07 0)
(-6.2975115e-07 -6.2878385e-07 0)
(-8.087646e-07 -1.0082526e-06 0)
(-9.7551745e-07 -1.4735682e-06 0)
(-1.130189e-06 -2.0186928e-06 0)
(-1.273112e-06 -2.637667e-06 0)
(-1.4046445e-06 -3.3247043e-06 0)
(-1.5251464e-06 -4.074199e-06 0)
(-1.6349773e-06 -4.8807256e-06 0)
(-1.7344962e-06 -5.7390387e-06 0)
(-1.8240621e-06 -6.6440722e-06 0)
(-1.9040332e-06 -7.5909393e-06 0)
(-1.9747677e-06 -8.5749326e-06 0)
(-2.0366231e-06 -9.5915233e-06 0)
(-2.0899568e-06 -1.0636362e-05 0)
(-2.1351254e-06 -1.1705276e-05 0)
(-2.1724853e-06 -1.2794273e-05 0)
(-2.2023922e-06 -1.3899539e-05 0)
(-2.2252014e-06 -1.5017435e-05 0)
(-2.2412676e-06 -1.6144502e-05 0)
(-2.2509449e-06 -1.7277457e-05 0)
(-2.254587e-06 -1.8413195e-05 0)
(-2.2525468e-06 -1.9548787e-05 0)
(-2.2451767e-06 -2.0681479e-05 0)
(-2.2328284e-06 -2.1808696e-05 0)
(-2.2158532e-06 -2.2928037e-05 0)
(-2.1946014e-06 -2.4037276e-05 0)
(-2.1694228e-06 -2.5134363e-05 0)
(-2.1406666e-06 -2.6217422e-05 0)
(-2.1086812e-06 -2.7284752e-05 0)
(-2.0738146e-06 -2.8334826e-05 0)
(-2.0364154e-06 -2.9366293e-05 0)
(-1.9968328e-06 -3.0377981e-05 0)
(-1.9554018e-06 -3.1368905e-05 0)
(-1.9122937e-06 -3.2338218e-05 0)
(-1.866285e-06 -3.3284653e-05 0)
(-1.8096614e-06 -3.4201575e-05 0)
(-1.6877951e-06 -3.5057e-05 0)
(-1.4380316e-06 -3.5625214e-05 0)
(0 0 0)
(-1.0788615e-07 -1.0235844e-07 0)
(-2.1088322e-07 -2.9638446e-07 0)
(-3.0729603e-07 -5.869586e-07 0)
(-3.9718061e-07 -9.6923951e-07 0)
(-4.8079226e-07 -1.437329e-06 0)
(-5.5833871e-07 -1.9851417e-06 0)
(-6.3000772e-07 -2.6067202e-06 0)
(-6.9598102e-07 -3.2962801e-06 0)
(-7.5643884e-07 -4.0482163e-06 0)
(-8.1156094e-07 -4.8571035e-06 0)
(-8.6152689e-07 -5.7176965e-06 0)
(-9.0651606e-07 -6.6249291e-06 0)
(-9.4670766e-07 -7.5739148e-06 0)
(-9.822807e-07 -8.559946e-06 0)
(-1.013414e-06 -9.5784943e-06 0)
(-1.0402861e-06 -1.062521e-05 0)
(-1.0630754e-06 -1.1695921e-05 0)
(-1.0819601e-06 -1.2786636e-05 0)
(-1.0971179e-06 -1.3893538e-05 0)
(-1.1087266e-06 -1.5012991e-05 0)
(-1.1169634e-06 -1.6141536e-05 0)
(-1.1220055e-06 -1.7275889e-05 0)
(-1.1240296e-06 -1.8412945e-05 0)
(-1.1232122e-06 -1.9549775e-05 0)
(-1.1197294e-06 -2.0683628e-05 0)
(-1.1137573e-06 -2.1811925e-05 0)
(-1.1054712e-06 -2.2932268e-05 0)
(-1.0950466e-06 -2.404243e-05 0)
(-1.0826581e-06 -2.5140361e-05 0)
(-1.0684806e-06 -2.6224186e-05 0)
(-1.0526883e-06 -2.7292203e-05 0)
(-1.0354558e-06 -2.8342886e-05 0)
(-1.0169582e-06 -2.9374881e-05 0)
(-9.9737463e-07 -3.038701e-05 0)
(-9.7689954e-07 -3.1378265e-05 0)
(-9.5578987e-07 -3.2347767e-05 0)
(-9.345309e-07 -3.3294372e-05 0)
(-9.1416697e-07 -3.4214701e-05 0)
(-8.9611428e-07 -3.5089796e-05 0)
(-8.6310086e-07 -3.5871382e-05 0)
(0 0 0)
(-3.5233867e-13 -8.6965249e-08 0)
(-7.3611642e-13 -2.8115302e-07 0)
(-1.1266392e-12 -5.7283406e-07 0)
(-1.5183619e-12 -9.5615766e-07 0)
(-1.9104328e-12 -1.4251954e-06 0)
(-2.3024352e-12 -1.9739089e-06 0)
(-2.6935459e-12 -2.5963564e-06 0)
(-3.0824953e-12 -3.2867573e-06 0)
(-3.4678472e-12 -4.0395074e-06 0)
(-3.8480104e-12 -4.8491815e-06 0)
(-4.22145e-12 -5.7105345e-06 0)
(-4.5865877e-12 -6.6185002e-06 0)
(-4.9419938e-12 -7.5681921e-06 0)
(-5.2862335e-12 -8.5549028e-06 0)
(-5.6180632e-12 -9.5741037e-06 0)
(-5.9362406e-12 -1.0621445e-05 0)
(-6.239729e-12 -1.1692756e-05 0)
(-6.5274861e-12 -1.2784043e-05 0)
(-6.798684e-12 -1.3891491e-05 0)
(-7.0524968e-12 -1.5011463e-05 0)
(-7.2883479e-12 -1.61405e-05 0)
(-7.5057399e-12 -1.7275319e-05 0)
(-7.7045702e-12 -1.8412814e-05 0)
(-7.8851343e-12 -1.9550058e-05 0)
(-8.0485227e-12 -2.0684297e-05 0)
(-8.1966279e-12 -2.1812955e-05 0)
(-8.3318773e-12 -2.2933631e-05 0)
(-8.4559297e-12 -2.4044101e-05 0)
(-8.5696003e-12 -2.5142314e-05 0)
(-8.6747172e-12 -2.6226394e-05 0)
(-8.7781298e-12 -2.729464e-05 0)
(-8.8916382e-12 -2.8345525e-05 0)
(-9.0245207e-12 -2.9377695e-05 0)
(-9.1708626e-12 -3.0389962e-05 0)
(-9.3092481e-12 -3.1381285e-05 0)
(-9.4158505e-12 -3.2350632e-05 0)
(-9.4820532e-12 -3.3296394e-05 0)
(-9.5267241e-12 -3.4214442e-05 0)
(-9.5596703e-12 -3.5094722e-05 0)
(-9.5542995e-12 -3.5955118e-05 0)
(0 0 0)
(1.0788545e-07 -1.0235825e-07 0)
(2.1088179e-07 -2.9638422e-07 0)
(3.0729385e-07 -5.8695835e-07 0)
(3.9717768e-07 -9.6923926e-07 0)
(4.8078857e-07 -1.4373287e-06 0)
(5.5833427e-07 -1.9851414e-06 0)
(6.3000252e-07 -2.60672e-06 0)
(6.9597507e-07 -3.2962798e-06 0)
(7.5643213e-07 -4.048216e-06 0)
(8.1155349e-07 -4.8571033e-06 0)
(8.6151872e-07 -5.7176962e-06 0)
(9.0650718e-07 -6.6249288e-06 0)
(9.4669809e-07 -7.5739145e-06 0)
(9.8227046e-07 -8.5599458e-06 0)
(1.0134031e-06 -9.5784941e-06 0)
(1.0402746e-06 -1.062521e-05 0)
(1.0630633e-06 -1.1695921e-05 0)
(1.0819474e-06 -1.2786636e-05 0)
(1.0971047e-06 -1.3893538e-05 0)
(1.1087129e-06 -1.5012991e-05 0)
(1.1169493e-06 -1.6141536e-05 0)
(1.1219909e-06 -1.7275889e-05 0)
(1.1240146e-06 -1.8412945e-05 0)
(1.1231969e-06 -1.9549775e-05 0)
(1.1197138e-06 -2.0683628e-05 0)
(1.1137414e-06 -2.1811925e-05 0)
(1.1054551e-06 -2.2932268e-05 0)
(1.0950301e-06 -2.404243e-05 0)
(1.0826415e-06 -2.5140361e-05 0)
(1.0684637e-06 -2.6224186e-05 0)
(1.0526712e-06 -2.7292203e-05 0)
(1.0354385e-06 -2.8342886e-05 0)
(1.0169406e-06 -2.9374881e-05 0)
(9.9735675e-07 -3.0387009e-05 0)
(9.7688139e-07 -3.1378265e-05 0)
(9.5577149e-07 -3.2347767e-05 0)
(9.3451234e-07 -3.3294372e-05 0)
(9.1414829e-07 -3.4214702e-05 0)
(8.9609551e-07 -3.5089796e-05 0)
(8.6308207e-07 -3.5871382e-05 0)
(7.020805e-08 -3.5303891e-08 0)
(2.4102621e-07 -1.4543996e-07 0)
(4.3940383e-07 -3.4076854e-07 0)
(6.2974904e-07 -6.2878338e-07 0)
(8.0876178e-07 -1.0082521e-06 0)
(9.755139e-07 -1.4735677e-06 0)
(1.1301847e-06 -2.0186924e-06 0)
(1.273107e-06 -2.6376665e-06 0)
(1.4046387e-06 -3.3247038e-06 0)
(1.5251399e-06 -4.0741985e-06 0)
(1.6349701e-06 -4.8807252e-06 0)
(1.7344883e-06 -5.7390383e-06 0)
(1.8240535e-06 -6.6440718e-06 0)
(1.9040239e-06 -7.5909389e-06 0)
(1.9747578e-06 -8.5749322e-06 0)
(2.0366126e-06 -9.5915229e-06 0)
(2.0899457e-06 -1.0636361e-05 0)
(2.1351137e-06 -1.1705276e-05 0)
(2.172473e-06 -1.2794273e-05 0)
(2.2023794e-06 -1.3899538e-05 0)
(2.2251881e-06 -1.5017435e-05 0)
(2.2412539e-06 -1.6144502e-05 0)
(2.2509308e-06 -1.7277457e-05 0)
(2.2545725e-06 -1.8413195e-05 0)
(2.2525319e-06 -1.9548786e-05 0)
(2.2451615e-06 -2.0681479e-05 0)
(2.232813e-06 -2.1808696e-05 0)
(2.2158375e-06 -2.2928037e-05 0)
(2.1945855e-06 -2.4037276e-05 0)
(2.1694067e-06 -2.5134363e-05 0)
(2.1406502e-06 -2.6217422e-05 0)
(2.1086645e-06 -2.7284752e-05 0)
(2.0737977e-06 -2.8334826e-05 0)
(2.0363982e-06 -2.9366293e-05 0)
(1.9968154e-06 -3.0377981e-05 0)
(1.9553842e-06 -3.1368905e-05 0)
(1.9122759e-06 -3.2338218e-05 0)
(1.8662669e-06 -3.3284653e-05 0)
(1.8096431e-06 -3.4201575e-05 0)
(1.6877767e-06 -3.5057e-05 0)
(1.4380132e-06 -3.5625215e-05 0)
(-7.0208281e-08 -3.5304042e-08 0)
(-2.4102698e-07 -1.4544033e-07 0)
(-4.3940525e-07 -3.4076899e-07 0)
(-6.2975115e-07 -6.2878385e-07 0)
(-8.087646e-07 -1.0082526e-06 0)
(-9.7551745e-07 -1.4735682e-06 0)
(-1.130189e-06 -2.0186928e-06 0)
(-1.273112e-06 -2.637667e-06 0)
(-1.4046445e-06 -3.3247043e-06 0)
(-1.5251464e-06 -4.074199e-06 0)
(-1.6349773e-06 -4.8807256e-06 0)
(-1.7344962e-06 -5.7390387e-06 0)
(-1.8240621e-06 -6.6440722e-06 0)
(-1.9040332e-06 -7.5909393e-06 0)
(-1.9747677e-06 -8.5749326e-06 0)
(-2.0366231e-06 -9.5915233e-06 0)
(-2.0899568e-06 -1.0636362e-05 0)
(-2.1351254e-06 -1.1705276e-05 0)
(-2.1724853e-06 -1.2794273e-05 0)
(-2.2023922e-06 -1.3899539e-05 0)
(-2.2252014e-06 -1.5017435e-05 0)
(-2.2412676e-06 -1.6144502e-05 0)
(-2.2509449e-06 -1.7277457e-05 0)
(-2.254587e-06 -1.8413195e-05 0)
(-2.2525468e-06 -1.9548787e-05 0)
(-2.2451767e-06 -2.0681479e-05 0)
(-2.2328284e-06 -2.1808696e-05 0)
(-2.2158532e-06 -2.2928037e-05 0)
(-2.1946014e-06 -2.4037276e-05 0)
(-2.1694228e-06 -2.5134363e-05 0)
(-2.1406666e-06 -2.6217422e-05 0)
(-2.1086812e-06 -2.7284752e-05 0)
(-2.0738146e-06 -2.8334826e-05 0)
(-2.0364154e-06 -2.9366293e-05 0)
(-1.9968328e-06 -3.0377981e-05 0)
(-1.9554018e-06 -3.1368905e-05 0)
(-1.9122937e-06 -3.2338218e-05 0)
(-1.866285e-06 -3.3284653e-05 0)
(-1.8096614e-06 -3.4201575e-05 0)
(-1.6877951e-06 -3.5057e-05 0)
(-1.4380316e-06 -3.5625214e-05 0)
(0 0 0)
(-1.0788615e-07 -1.0235844e-07 0)
(-2.1088322e-07 -2.9638446e-07 0)
(-3.0729603e-07 -5.869586e-07 0)
(-3.9718061e-07 -9.6923951e-07 0)
(-4.8079226e-07 -1.437329e-06 0)
(-5.5833871e-07 -1.9851417e-06 0)
(-6.3000772e-07 -2.6067202e-06 0)
(-6.9598102e-07 -3.2962801e-06 0)
(-7.5643884e-07 -4.0482163e-06 0)
(-8.1156094e-07 -4.8571035e-06 0)
(-8.6152689e-07 -5.7176965e-06 0)
(-9.0651606e-07 -6.6249291e-06 0)
(-9.4670766e-07 -7.5739148e-06 0)
(-9.822807e-07 -8.559946e-06 0)
(-1.013414e-06 -9.5784943e-06 0)
(-1.0402861e-06 -1.062521e-05 0)
(-1.0630754e-06 -1.1695921e-05 0)
(-1.0819601e-06 -1.2786636e-05 0)
(-1.0971179e-06 -1.3893538e-05 0)
(-1.1087266e-06 -1.5012991e-05 0)
(-1.1169634e-06 -1.6141536e-05 0)
(-1.1220055e-06 -1.7275889e-05 0)
(-1.1240296e-06 -1.8412945e-05 0)
(-1.1232122e-06 -1.9549775e-05 0)
(-1.1197294e-06 -2.0683628e-05 0)
(-1.1137573e-06 -2.1811925e-05 0)
(-1.1054712e-06 -2.2932268e-05 0)
(-1.0950466e-06 -2.404243e-05 0)
(-1.0826581e-06 -2.5140361e-05 0)
(-1.0684806e-06 -2.6224186e-05 0)
(-1.0526883e-06 -2.7292203e-05 0)
(-1.0354558e-06 -2.8342886e-05 0)
(-1.0169582e-06 -2.9374881e-05 0)
(-9.9737463e-07 -3.038701e-05 0)
(-9.7689954e-07 -3.1378265e-05 0)
(-9.5578987e-07 -3.2347767e-05 0)
(-9.345309e-07 -3.3294372e-05 0)
(-9.1416697e-07 -3.4214701e-05 0)
(-8.9611428e-07 -3.5089796e-05 0)
(-8.6310086e-07 -3.5871382e-05 0)
(0 0 0)
(-3.5233867e-13 -8.6965249e-08 0)
(-7.3611642e-13 -2.8115302e-07 0)
(-1.1266392e-12 -5.7283406e-07 0)
(-1.5183619e-12 -9.5615766e-07 0)
(-1.9104328e-12 -1.4251954e-06 0)
(-2.3024352e-12 -1.9739089e-06 0)
(-2.6935459e-12 -2.5963564e-06 0)
(-3.0824953e-12 -3.2867573e-06 0)
(-3.4678472e-12 -4.0395074e-06 0)
(-3.8480104e-12 -4.8491815e-06 0)
(-4.22145e-12 -5.7105345e-06 0)
(-4.5865877e-12 -6.6185002e-06 0)
(-4.9419938e-12 -7.5681921e-06 0)
(-5.2862335e-12 -8.5549028e-06 0)
(-5.6180632e-12 -9.5741037e-06 0)
(-5.9362406e-12 -1.0621445e-05 0)
(-6.239729e-12 -1.1692756e-05 0)
(-6.5274861e-12 -1.2784043e-05 0)
(-6.798684e-12 -1.3891491e-05 0)
(-7.0524968e-12 -1.5011463e-05 0)
(-7.2883479e-12 -1.61405e-05 0)
(-7.5057399e-12 -1.7275319e-05 0)
(-7.7045702e-12 -1.8412814e-05 0)
(-7.8851343e-12 -1.9550058e-05 0)
(-8.0485227e-12 -2.0684297e-05 0)
(-8.1966279e-12 -2.1812955e-05 0)
(-8.3318773e-12 -2.2933631e-05 0)
(-8.4559297e-12 -2.4044101e-05 0)
(-8.5696003e-12 -2.5142314e-05 0)
(-8.6747172e-12 -2.6226394e-05 0)
(-8.7781298e-12 -2.729464e-05 0)
(-8.8916382e-12 -2.8345525e-05 0)
(-9.0245207e-12 -2.9377695e-05 0)
(-9.1708626e-12 -3.0389962e-05 0)
(-9.3092481e-12 -3.1381285e-05 0)
(-9.4158505e-12 -3.2350632e-05 0)
(-9.4820532e-12 -3.3296394e-05 0)
(-9.5267241e-12 -3.4214442e-05 0)
(-9.5596703e-12 -3.5094722e-05 0)
(-9.5542995e-12 -3.5955118e-05 0)
(0 0 0)
(1.0788545e-07 -1.0235825e-07 0)
(2.1088179e-07 -2.9638422e-07 0)
(3.0729385e-07 -5.8695835e-07 0)
(3.9717768e-07 -9.6923926e-07 0)
(4.8078857e-07 -1.4373287e-06 0)
(5.5833427e-07 -1.9851414e-06 0)
(6.3000252e-07 -2.60672e-06 0)
(6.9597507e-07 -3.2962798e-06 0)
(7.5643213e-07 -4.048216e-06 0)
(8.1155349e-07 -4.8571033e-06 0)
(8.6151872e-07 -5.7176962e-06 0)
(9.0650718e-07 -6.6249288e-06 0)
(9.4669809e-07 -7.5739145e-06 0)
(9.8227046e-07 -8.5599458e-06 0)
(1.0134031e-06 -9.5784941e-06 0)
(1.0402746e-06 -1.062521e-05 0)
(1.0630633e-06 -1.1695921e-05 0)
(1.0819474e-06 -1.2786636e-05 0)
(1.0971047e-06 -1.3893538e-05 0)
(1.1087129e-06 -1.5012991e-05 0)
(1.1169493e-06 -1.6141536e-05 0)
(1.1219909e-06 -1.7275889e-05 0)
(1.1240146e-06 -1.8412945e-05 0)
(1.1231969e-06 -1.9549775e-05 0)
(1.1197138e-06 -2.0683628e-05 0)
(1.1137414e-06 -2.1811925e-05 0)
(1.1054551e-06 -2.2932268e-05 0)
(1.0950301e-06 -2.404243e-05 0)
(1.0826415e-06 -2.5140361e-05 0)
(1.0684637e-06 -2.6224186e-05 0)
(1.0526712e-06 -2.7292203e-05 0)
(1.0354385e-06 -2.8342886e-05 0)
(1.0169406e-06 -2.9374881e-05 0)
(9.9735675e-07 -3.0387009e-05 0)
(9.7688139e-07 -3.1378265e-05 0)
(9.5577149e-07 -3.2347767e-05 0)
(9.3451234e-07 -3.3294372e-05 0)
(9.1414829e-07 -3.4214702e-05 0)
(8.9609551e-07 -3.5089796e-05 0)
(8.6308207e-07 -3.5871382e-05 0)
(7.020805e-08 -3.5303891e-08 0)
(2.4102621e-07 -1.4543996e-07 0)
(4.3940383e-07 -3.4076854e-07 0)
(6.2974904e-07 -6.2878338e-07 0)
(8.0876178e-07 -1.0082521e-06 0)
(9.755139e-07 -1.4735677e-06 0)
(1.1301847e-06 -2.0186924e-06 0)
(1.273107e-06 -2.6376665e-06 0)
(1.4046387e-06 -3.3247038e-06 0)
(1.5251399e-06 -4.0741985e-06 0)
(1.6349701e-06 -4.8807252e-06 0)
(1.7344883e-06 -5.7390383e-06 0)
(1.8240535e-06 -6.6440718e-06 0)
(1.9040239e-06 -7.5909389e-06 0)
(1.9747578e-06 -8.5749322e-06 0)
(2.0366126e-06 -9.5915229e-06 0)
(2.0899457e-06 -1.0636361e-05 0)
(2.1351137e-06 -1.1705276e-05 0)
(2.172473e-06 -1.2794273e-05 0)
(2.2023794e-06 -1.3899538e-05 0)
(2.2251881e-06 -1.5017435e-05 0)
(2.2412539e-06 -1.6144502e-05 0)
(2.2509308e-06 -1.7277457e-05 0)
(2.2545725e-06 -1.8413195e-05 0)
(2.2525319e-06 -1.9548786e-05 0)
(2.2451615e-06 -2.0681479e-05 0)
(2.232813e-06 -2.1808696e-05 0)
(2.2158375e-06 -2.2928037e-05 0)
(2.1945855e-06 -2.4037276e-05 0)
(2.1694067e-06 -2.5134363e-05 0)
(2.1406502e-06 -2.6217422e-05 0)
(2.1086645e-06 -2.7284752e-05 0)
(2.0737977e-06 -2.8334826e-05 0)
(2.0363982e-06 -2.9366293e-05 0)
(1.9968154e-06 -3.0377981e-05 0)
(1.9553842e-06 -3.1368905e-05 0)
(1.9122759e-06 -3.2338218e-05 0)
(1.8662669e-06 -3.3284653e-05 0)
(1.8096431e-06 -3.4201575e-05 0)
(1.6877767e-06 -3.5057e-05 0)
(1.4380132e-06 -3.5625215e-05 0)
)
;

boundaryField
{
    left
    {
        type            calculated;
    }
    right
    {
        type            calculated;
    }
    top
    {
        type            calculated;
    }
    bottom
    {
        type            calculated;
    }
    frontAndBack
    {
        type            empty;
    }
}


// ************************************************************************* //
