/*--------------------------------*- C++ -*----------------------------------*\
| =========                 |                                                 |
| \\      /  F ield         | OpenFOAM: The Open Source CFD Toolbox           |
|  \\    /   O peration     | Version:  2512                                  |
|   \\  /    A nd           | Website:  www.openfoam.com                      |
|    \\/     M anipulation  |                                                 |
\*---------------------------------------------------------------------------*/
FoamFile
{
    version     2.0;
    format      ascii;
    arch        "LSB;label=32;scalar=64";
    class       volScalarField;
    location    "1";
    object      sigmaEq;
}
// * * * * * * * * * * * * * * * * * * * * * * * * * * * * * * * * * * * * * //

dimensions      [1 -1 -2 0 0 0 0];

internalField   nonuniform List<scalar> 
160
(
1000497
1089651.5
1043235.3
978607.5
911395.03
845587.02
781695.41
719776.15
659827.21
601846.56
545834.43
491792.54
439724
389633.87
341530.32
295426.63
251345.04
209324.38
169436.82
131829.27
96842.959
65439.904
41088.969
34889.341
50131.541
72407.046
95370.896
117404.5
137993.13
156931.6
174123.89
189518.03
203076.61
214751.4
224472.53
232437.59
242461.13
280031.27
528664.7
1497548.1
418634.15
416438.68
390018.1
364944.96
342076.33
320392
299527.36
279394.14
259980.62
241292.94
223342.48
206143.85
189715.17
174078.85
159262.69
145301.21
132237.18
120123.34
109023.78
99014.49
90181.753
82616.417
76401.936
71595.182
68202.878
66161.895
65334.072
65520.666
66490.723
68011.085
69868.259
71878.75
73887.007
75739.887
77177.021
77421.009
74288.345
71054.1
159627.49
458270.12
418629.92
416433.75
390012.91
364939.67
342071
320386.63
299521.98
279388.77
259975.28
241287.65
223337.26
206138.73
189710.17
174074
159258
145296.7
132232.88
120119.26
109019.95
99010.928
90178.481
82613.456
76399.302
71592.883
68200.913
66160.258
65332.75
65519.636
66489.922
68010.455
69867.841
71878.755
73887.678
75741.142
77178.381
77421.966
74288.908
71055.309
159629.36
458270.41
1000492.6
1089646.5
1043230.1
978602.12
911389.58
845581.53
781689.91
719770.65
659821.75
601841.15
545829.09
491787.29
439718.86
389628.86
341525.45
295421.91
251340.49
209319.99
169432.59
131825.19
96839.007
65436.066
41085.511
34887.784
50131.826
72407.962
95371.994
117405.64
137994.29
156932.83
174125.27
189519.57
203078.31
214753.15
224474.23
232439.16
242462.39
280032
528664.75
1497548.6
)
;

boundaryField
{
    left
    {
        type            calculated;
        value           nonuniform List<scalar> 4(1179012.5 337675.61 337671.73 1179007.5);
    }
    right
    {
        type            calculated;
        value           nonuniform List<scalar> 4(1785987.5 607524.72 607523.05 1785988.1);
    }
    top
    {
        type            calculated;
        value           nonuniform List<scalar> 
40
(
1239325.7
1439275.2
1380997.6
1298777.4
1209823.2
1122170.3
1036931.2
954290.4
874260.74
796839.67
722024.28
649812.02
580200.31
513186.41
448767.4
386940.16
327701.41
271047.71
216975.49
165481.11
116560.97
70212.237
26439.666
14849.693
53489.422
89601.895
123169.55
154195.33
182683.83
208640.01
232068.29
252971
271345.41
287184.78
300595.61
312762.21
333806.9
410818.25
884163.19
1812079.3
)
;
    }
    bottom
    {
        type            calculated;
        value           nonuniform List<scalar> 
40
(
1239329.6
1439279.9
1381002.6
1298782.6
1209828.5
1122175.6
1036936.6
954295.71
874266
796844.87
722029.39
649817.02
580205.18
513191.13
448771.95
386944.53
327705.58
271051.67
216979.23
165484.61
116564.23
70215.248
26442.427
14847.18
53487.137
89599.834
123167.7
154193.64
182682.17
208638.23
232066.33
252969.03
271343.63
287183.22
300594.03
312760.35
333805
410816.92
884162.63
1812079
)
;
    }
    frontAndBack
    {
        type            empty;
    }
}


// ************************************************************************* //
