/*--------------------------------*- C++ -*----------------------------------*\
| =========                 |                                                 |
| \\      /  F ield         | OpenFOAM: The Open Source CFD Toolbox           |
|  \\    /   O peration     | Version:  2512                                  |
|   \\  /    A nd           | Website:  www.openfoam.com                      |
|    \\/     M anipulation  |                                                 |
\*---------------------------------------------------------------------------*/
FoamFile
{
    version     2.0;
    format      ascii;
    arch        "LSB;label=32;scalar=64";
    class       volSymmTensorField;
    location    "1";
    object      sigma;
}
// * * * * * * * * * * * * * * * * * * * * * * * * * * * * * * * * * * * * * //

dimensions      [1 -1 -2 0 0 0 0];

internalField   nonuniform List<symmTensor> 
160
(
(-1033657.9 -14070.165 -7.9536597e-11 65082.957 3.9768299e-11 -176104.54)
(-1115360.5 -42602.798 -1.5907319e-10 81075.674 -3.5791469e-10 -188051.79)
(-1058641.2 -42479.795 -3.1814639e-10 88954.133 0 -176306.74)
(-992705.79 -42631.623 1.5907319e-10 83406.167 1.2725856e-09 -165327.2)
(-924297.03 -41686.006 -3.1814639e-10 77600.892 -6.3629278e-10 -153944.75)
(-857310.44 -40556.611 -6.3629278e-10 71946.307 0 -142793.48)
(-792233.82 -39381.811 0 66504.582 6.3629278e-10 -131950.77)
(-729147.34 -38199.153 3.1814639e-10 61242.882 -6.3629278e-10 -121437.17)
(-668054.37 -37015.069 3.1814639e-10 56150.797 0 -111255.2)
(-608952.55 -35830.818 6.3629278e-10 51225.368 0 -101404.94)
(-551839.72 -34646.663 6.3629278e-10 46465.838 0 -91886.161)
(-496713.94 -33462.687 1.5907319e-09 41871.925 -3.8177567e-09 -82698.549)
(-443573.25 -32278.925 2.5451711e-09 37443.439 7.6355133e-09 -73841.784)
(-392415.54 -31095.405 -6.3629278e-10 33180.197 -1.0180684e-08 -65315.517)
(-343238.58 -29912.142 3.1814639e-10 29082.013 -2.5451711e-09 -57119.375)
(-296039.98 -28729.157 2.5451711e-09 25148.686 1.2725856e-08 -49252.963)
(-250817.23 -27546.464 -6.3629278e-10 21380.007 5.0903422e-09 -41715.86)
(-207567.69 -26364.079 6.3629278e-10 17775.755 7.6355133e-09 -34507.624)
(-166288.56 -25182.015 -1.2725856e-09 14335.7 0 -27627.793)
(-126976.98 -24000.286 -2.5451711e-09 11059.602 5.0903422e-09 -21075.887)
(-89629.931 -22818.903 6.3629278e-10 7947.2103 0 -14851.404)
(-54244.327 -21637.878 1.9088783e-09 4998.2681 0 -8953.8289)
(-20816.976 -20457.222 0 2212.5094 1.0180684e-08 -3382.6302)
(10655.398 -19276.947 -1.9088783e-09 -410.33907 -1.0180684e-08 1862.7379)
(40176.147 -18097.066 1.2725856e-09 -2870.557 3.0542053e-08 6782.8345)
(67748.698 -16917.599 1.2725856e-09 -5168.4326 2.0361369e-08 11378.23)
(93376.562 -15738.583 1.2725856e-09 -7304.2583 -5.0903422e-09 15649.51)
(117063.35 -14560.081 -1.2725856e-09 -9278.329 3.0542053e-08 19597.277)
(138812.82 -13382.195 2.5451711e-09 -11090.903 -2.0361369e-08 23222.166)
(158628.69 -12205.013 6.3629278e-10 -12742.124 0 26524.83)
(176514.19 -11028.753 6.3629278e-10 -14231.802 -1.0180684e-08 29505.888)
(192470.84 -9854.421 -6.3629278e-10 -15558.515 0 32165.877)
(206495.67 -8686.1923 0 -16715.644 -1.0180684e-08 34505.459)
(218577.41 -7540.4543 6.3629278e-10 -17674.918 -3.0542053e-08 36527.726)
(228737.63 -6490.7851 0 -18322.98 1.0180684e-08 38257.209)
(237424.82 -5860.2533 -6.3629278e-10 -18349.309 -4.0722738e-08 39831.911)
(249175.52 -7356.1653 6.3629278e-10 -17086.946 -2.0361369e-08 42197.922)
(284482.24 -15389.261 -3.1814639e-10 -22696.018 -1.0180684e-08 47597.495)
(513153.7 -66683.016 3.1814639e-10 -58667.552 -2.0361369e-08 82633.845)
(873435.19 25863.121 3.1814639e-10 -854997.33 -4.0722738e-08 3352.3373)
(-413271.26 -125289.06 -3.9768299e-11 -33949.15 5.4681411e-11 -81312.803)
(-380539.73 -106839.25 -1.3918905e-10 30605.135 -1.193049e-10 -63624.472)
(-355607.39 -98581.225 -2.7837809e-10 31374.66 3.9768299e-10 -58951.406)
(-331671.2 -94046.96 -1.9884149e-10 28609.899 0 -55102.055)
(-308605.45 -91011.876 -3.1814639e-10 26248.446 1.9088783e-09 -51337.637)
(-286236.82 -88306.792 -6.3629278e-10 24265.551 1.2725856e-09 -47631.14)
(-264541.27 -85668.715 -3.9768299e-10 22431.09 -1.2725856e-09 -44020.032)
(-243512.09 -83042.807 -3.9768299e-10 20673.451 2.5451711e-09 -40516.115)
(-223147.43 -80419.843 -3.1814639e-10 18975.304 3.8177567e-09 -37122.205)
(-203446.41 -77798.478 -1.1135124e-09 17333.179 -2.5451711e-09 -33838.769)
(-184408.34 -75178.611 -7.9536597e-10 15746.411 -2.5451711e-09 -30665.804)
(-166032.58 -72560.321 -4.7721958e-10 14214.846 -2.0361369e-08 -27603.225)
(-148318.48 -69943.719 -9.5443917e-10 12738.406 5.0903422e-09 -24650.923)
(-131265.34 -67328.924 -6.3629278e-10 11317.03 -1.0180684e-08 -21808.783)
(-114872.41 -64716.055 -6.3629278e-10 9950.654 2.5451711e-09 -19076.682)
(-99138.894 -62105.229 -1.2725856e-09 8639.2114 7.6355133e-09 -16454.488)
(-84063.961 -59496.558 -1.4316588e-09 7382.6335 -1.7816198e-08 -13942.06)
(-69646.728 -56890.148 -1.4316588e-09 6180.8477 0 -11539.251)
(-55886.272 -54286.099 -6.3629278e-10 5033.7784 -1.5271027e-08 -9245.908)
(-42781.633 -51684.507 -7.9536597e-10 3941.3465 2.5451711e-08 -7061.8704)
(-30331.815 -49085.457 -1.2725856e-09 2903.4702 -5.0903422e-09 -4986.9717)
(-18535.786 -46489.033 -1.2725856e-09 1920.0647 5.0903422e-09 -3021.0403)
(-7392.4877 -43895.309 -9.5443917e-10 991.04251 -1.0180684e-08 -1163.8991)
(3099.1691 -41304.359 -1.1135124e-09 116.31387 1.5271027e-08 584.63326)
(12940.297 -38716.255 -6.3629278e-10 -704.21329 0 2224.7426)
(22132.036 -36131.073 -1.4316588e-09 -1470.6356 0 3756.6182)
(30675.549 -33548.903 -6.3629278e-10 -2183.0518 5.0903422e-09 5180.454)
(38572.031 -30969.846 -6.3629278e-10 -2841.5624 -5.0903422e-09 6496.4488)
(45822.685 -28393.921 -1.1135124e-09 -3446.2299 -1.0180684e-08 7704.81)
(52428.639 -25820.846 -1.4316588e-09 -3996.9964 2.0361369e-08 8805.7531)
(58390.747 -23249.806 -3.1814639e-10 -4493.4923 1.0180684e-08 9799.5009)
(63709.186 -20679.15 -1.1135124e-09 -4934.2521 -6.1084107e-08 10686.352)
(68382.359 -18104.85 -4.7721958e-10 -5312.7252 3.0542053e-08 11467.206)
(72403.615 -15510.13 -6.3629278e-10 -5596.2368 -2.0361369e-08 12146.796)
(75749.246 -12804.306 -1.1135124e-09 -5627.5865 0 12749.393)
(78336.467 -9505.5736 -6.3629278e-10 -4724.6099 -1.0180684e-08 13383.974)
(79804.711 -3175.6615 -9.5443917e-10 -644.92949 -1.0180684e-08 14392.688)
(79010.799 15847.103 -7.9536597e-10 10929 -3.0542053e-08 16352.691)
(67314.105 84442.495 -6.3629278e-10 -2593.0345 1.0180684e-08 11767.467)
(52657.137 180329.76 -1.1135124e-09 -321731.57 2.0361369e-08 -48922.625)
(413265.87 -125288.77 -2.9826224e-11 33948.646 4.9710373e-12 81311.73)
(380534.17 -106839.1 5.9652448e-11 -30604.783 -2.3860979e-10 63623.526)
(355601.78 -98581.023 0 -31374.079 -1.5907319e-10 58950.492)
(331665.57 -94046.671 1.193049e-10 -28609.273 1.5907319e-10 55101.144)
(308599.79 -91011.501 1.5907319e-10 -26247.82 -1.2725856e-09 51336.723)
(286231.16 -88306.337 -7.9536597e-11 -24264.929 -1.2725856e-09 47630.223)
(264535.61 -85668.186 -2.3860979e-10 -22430.472 0 44019.116)
(243506.46 -83042.207 7.9536597e-11 -20672.835 1.2725856e-09 40515.204)
(223141.86 -80419.174 0 -18974.691 1.2725856e-09 37121.303)
(203440.91 -77797.742 -1.5907319e-10 -17332.568 1.2725856e-09 33837.88)
(184402.93 -75177.811 1.5907319e-10 -15745.806 -2.5451711e-09 30664.932)
(166027.3 -72559.458 0 -14214.247 -8.9080989e-09 27602.373)
(148313.34 -69942.796 -1.5907319e-10 -12737.819 7.6355133e-09 24650.095)
(131260.36 -67327.944 1.1135124e-09 -11316.456 -5.0903422e-09 21807.982)
(114867.61 -64715.02 6.3629278e-10 -9950.0975 2.7996882e-08 19075.911)
(99134.29 -62104.142 4.7721958e-10 -8638.6755 -1.2725856e-08 16453.748)
(84059.569 -59495.421 4.7721958e-10 -7382.1211 -1.0180684e-08 13941.354)
(69642.563 -56888.965 -3.1814639e-10 -6180.3615 1.5271027e-08 11538.582)
(55882.346 -54284.874 1.5907319e-10 -5033.3204 0 9245.2774)
(42777.957 -51683.242 -1.4316588e-09 -3940.9182 3.0542053e-08 7061.2799)
(30328.398 -49084.156 6.3629278e-10 -2903.0726 0 4986.4228)
(18532.635 -46487.699 1.5907319e-10 -1919.6981 5.0903422e-09 3020.534)
(7389.6038 -43893.947 3.1814639e-10 -990.70665 -1.0180684e-08 1163.4358)
(-3101.7898 -41302.972 0 -116.00691 5.0903422e-09 -585.05394)
(-12942.669 -38714.845 3.1814639e-10 704.4941 5.0903422e-09 -2225.1228)
(-22134.185 -36129.644 0 1470.8901 -1.0180684e-08 -3756.9628)
(-30677.515 -33547.461 -1.5907319e-10 2183.2619 -5.0903422e-09 -5180.7733)
(-38573.859 -30968.407 -4.7721958e-10 2841.6641 1.0180684e-08 -6496.7627)
(-45824.421 -28392.495 3.1814639e-10 3446.1254 -3.0542053e-08 -7705.1447)
(-52430.334 -25819.432 1.5907319e-10 3996.6403 0 -8806.1261)
(-58392.467 -23248.373 4.7721958e-10 4493.0184 1.0180684e-08 -9799.8997)
(-63710.993 -20677.673 -1.2725856e-09 4933.993 -1.0180684e-08 -10686.727)
(-68384.301 -18103.36 -3.1814639e-10 5312.9455 2.0361369e-08 -11467.519)
(-72405.638 -15508.7 -4.7721958e-10 5596.8083 -2.0361369e-08 -12147.06)
(-75751.204 -12802.978 0 5628.005 -2.0361369e-08 -12749.673)
(-78338.179 -9504.323 0 4724.434 3.0542053e-08 -13384.317)
(-79806.024 -3174.4253 -1.5907319e-10 644.23969 -1.0180684e-08 -14393.052)
(-79011.773 15848.33 0 -10929.74 1.0180684e-08 -16353.002)
(-67314.809 84443.615 -3.1814639e-10 2592.4686 0 -11767.698)
(-52657.432 180330.5 4.7721958e-10 321730.46 -2.0361369e-08 48922.368)
(1033653.3 -14070.013 1.3918905e-10 -65082.728 -4.9710373e-11 176103.74)
(1115355.4 -42602.675 4.7721958e-10 -81075.311 -3.9768299e-11 188050.93)
(1058635.9 -42479.611 3.9768299e-10 -88953.657 2.3860979e-10 176305.87)
(992700.37 -42631.34 3.1814639e-10 -83405.664 6.3629278e-10 165326.31)
(924291.56 -41685.632 6.3629278e-10 -77600.381 1.2725856e-09 153943.85)
(857304.95 -40556.156 6.3629278e-10 -71945.794 0 142792.57)
(792228.32 -39381.281 3.1814639e-10 -66504.069 -2.5451711e-09 131949.86)
(729141.86 -38198.552 9.5443917e-10 -61242.371 5.0903422e-09 121436.27)
(668048.94 -37014.399 0 -56150.289 -1.2725856e-09 111254.3)
(608947.19 -35830.082 1.2725856e-09 -51224.865 0 101404.06)
(551834.46 -34645.862 1.2725856e-09 -46465.341 -7.6355133e-09 91885.294)
(496708.79 -33461.824 1.2725856e-09 -41871.437 -6.3629278e-09 82697.701)
(443568.23 -32278.003 1.2725856e-09 -37442.961 -5.0903422e-09 73840.959)
(392410.68 -31094.424 9.5443917e-10 -33179.733 -2.5451711e-09 65314.718)
(343233.89 -29911.107 2.8633175e-09 -29081.563 5.0903422e-09 57118.605)
(296035.49 -28728.07 2.5451711e-09 -25148.253 2.5451711e-09 49252.224)
(250812.94 -27545.328 0 -21379.593 -2.5451711e-09 41715.155)
(207563.61 -26362.897 2.5451711e-09 -17775.362 -5.0903422e-09 34506.955)
(166284.72 -25180.79 1.9088783e-09 -14335.329 0 27627.162)
(126973.38 -23999.021 6.3629278e-10 -11059.254 -5.0903422e-09 21075.295)
(89626.583 -22817.602 1.9088783e-09 -7946.8872 -1.5271027e-08 14850.854)
(54241.235 -21636.545 1.2725856e-09 -4997.9695 1.5271027e-08 8953.3211)
(20814.142 -20455.86 1.9088783e-09 -2212.2353 5.0903422e-09 3382.1648)
(-10657.979 -19275.559 3.8177567e-09 410.58944 0 -1863.1617)
(-40178.486 -18095.656 6.3629278e-10 2870.7846 -1.5271027e-08 -6783.2184)
(-67750.813 -16916.168 6.3629278e-10 5168.6373 -5.0903422e-09 -11378.577)
(-93378.477 -15737.137 1.9088783e-09 7304.4329 -5.0903422e-09 -15649.826)
(-117065.12 -14558.642 1.9088783e-09 9278.4458 -1.0180684e-08 -19597.577)
(-138814.53 -13380.777 3.1814639e-09 11090.925 -3.0542053e-08 -23222.473)
(-158630.45 -12203.615 2.5451711e-09 12742.047 0 -26525.165)
(-176516.06 -11027.328 1.9088783e-09 14231.707 -3.0542053e-08 -29506.246)
(-192472.74 -9852.9219 2.5451711e-09 15558.554 1.0180684e-08 -32166.217)
(-206497.52 -8684.6652 1.2725856e-09 16715.897 -3.0542053e-08 -34505.75)
(-218579.18 -7539.0091 1.9088783e-09 17675.284 -2.0361369e-08 -36527.982)
(-228739.4 -6489.4827 1.2725856e-09 18323.22 -1.0180684e-08 -38257.488)
(-237426.67 -5859.0502 1.5907319e-09 18349.241 -4.0722738e-08 -39832.259)
(-249177.23 -7354.9375 1.2725856e-09 17086.663 0 -42198.285)
(-284483.46 -15387.991 0 22695.771 0 -47597.762)
(-513154.34 -66681.856 1.9088783e-09 58667.44 2.0361369e-08 -82633.982)
(-873435.41 25863.785 1.2725856e-09 854997.58 5.0903422e-08 -3352.3319)
)
;

boundaryField
{
    left
    {
        type            calculated;
        value           nonuniform List<symmTensor> 4((-1288569.1 -60812.553 0 -20814.004 0 -238069.65) (-382532.08 -92202.169 0 -85007.13 0 -85007.13) (382526.91 -92201.764 0 85005.979 0 85005.979) (1288563.7 -60811.904 0 20813.956 0 238068.67));
    }
    right
    {
        type            calculated;
        value           nonuniform List<symmTensor> 4((151441.25 402.04929 0 -1817860.9 0 -302985.38) (51514.609 601.43837 0 -618365.82 0 -103063.86) (-51514.467 601.43385 0 618364.12 0 103063.57) (-151441.3 402.04429 0 1817861.4 0 302985.47));
    }
    top
    {
        type            calculated;
        value           nonuniform List<symmTensor> 
40
(
(1261429.6 -28.681623 0 -105104.61 0 210240.91)
(1464946.4 -54.967329 0 -122060.51 0 244161.07)
(1405630.3 -87.723293 0 -117117 0 234275.14)
(1321944.4 -122.11696 0 -110143.17 0 220327.49)
(1231404.3 -156.45079 0 -102598.35 0 205237.45)
(1142188.6 -190.4067 0 -95163.951 0 190368.11)
(1055429.8 -223.86219 0 -87934.348 0 175908.26)
(971315.42 -256.72763 0 -80925.165 0 161889.14)
(889858.76 -288.91718 0 -74137.503 0 148312.96)
(811057.15 -320.34653 0 -67571.14 0 135179.27)
(734907.63 -350.93321 0 -61225.829 0 122487.6)
(661407.59 -380.59689 0 -55101.352 0 110237.5)
(590554.4 -409.25966 0 -49197.488 0 98428.53)
(522345.29 -436.84624 0 -43514.003 0 87060.233)
(456777.25 -463.28415 0 -38050.647 0 76132.109)
(393847.11 -488.50393 0 -32807.153 0 65643.628)
(333551.51 -512.43931 0 -27783.239 0 55594.231)
(275886.91 -535.02741 0 -22978.609 0 45983.328)
(220849.62 -556.20885 0 -18392.952 0 36810.303)
(168435.76 -575.92799 0 -14025.944 0 28074.512)
(118641.35 -594.13301 0 -9877.251 0 19775.29)
(71462.237 -610.77606 0 -5946.5245 0 11911.948)
(26894.169 -625.8134 0 -2233.4077 0 4483.7748)
(-15067.23 -639.20549 0 1262.4663 0 -2509.9571)
(-54426.442 -650.91711 0 4541.4733 0 -9069.9943)
(-91188.036 -660.9174 0 7603.9966 0 -15197.098)
(-125356.7 -669.17989 0 10450.429 0 -20892.049)
(-156937.32 -675.68271 0 13081.181 0 -26155.661)
(-185935.05 -680.40901 0 15496.684 0 -30988.794)
(-212355.13 -683.34782 0 17697.378 0 -35392.318)
(-236202.13 -684.49397 0 19683.647 0 -39366.996)
(-257478.45 -683.84653 0 21455.692 0 -42913.229)
(-276181.36 -681.40694 0 23013.287 0 -46030.558)
(-292303.99 -677.18083 0 24355.864 0 -48717.841)
(-305954.77 -671.18423 0 25492.457 0 -50993.147)
(-318339.14 -663.40912 0 26523.494 0 -53057.39)
(-339760.14 -653.46583 0 28307.295 0 -56627.79)
(-418146.9 -637.49981 0 34836.704 0 -69692.762)
(-899940.9 -597.6332 0 74972.809 0 -149994.2)
(-1844418.2 -398.13207 0 153653.75 0 -307411.73)
)
;
    }
    bottom
    {
        type            calculated;
        value           nonuniform List<symmTensor> 
40
(
(-1261433.6 -28.678509 0 105104.95 0 -210241.57)
(-1464951.2 -54.966121 0 122060.91 0 -244161.86)
(-1405635.4 -87.722973 0 117117.42 0 -234275.99)
(-1321949.6 -122.11688 0 110143.62 0 -220328.37)
(-1231409.7 -156.45077 0 102598.8 0 -205238.34)
(-1142194 -190.4067 0 95164.405 0 -190369.02)
(-1055435.2 -223.86221 0 87934.803 0 -175909.16)
(-971320.82 -256.72767 0 80925.618 0 -161890.04)
(-889864.12 -288.91725 0 74137.952 0 -148313.85)
(-811062.44 -320.34662 0 67571.583 0 -135180.16)
(-734912.82 -350.93333 0 61226.265 0 -122488.47)
(-661412.67 -380.59703 0 55101.778 0 -110238.34)
(-590559.36 -409.25984 0 49197.903 0 -98429.355)
(-522350.09 -436.84644 0 43514.405 0 -87061.033)
(-456781.88 -463.28438 0 38051.035 0 -76132.88)
(-393851.55 -488.50418 0 32807.525 0 -65644.369)
(-333555.75 -512.43958 0 27783.595 0 -55594.938)
(-275890.94 -535.02769 0 22978.947 0 -45983.999)
(-220853.41 -556.20916 0 18393.27 0 -36810.935)
(-168439.32 -575.92831 0 14026.243 0 -28075.105)
(-118644.66 -594.13333 0 9877.529 0 -19775.842)
(-71465.3 -610.77639 0 5946.7815 0 -11912.458)
(-26896.98 -625.81372 0 2233.6435 0 -4484.2431)
(15064.666 -639.2058 0 -1262.2513 0 2509.53)
(54424.116 -650.9174 0 -4541.2783 0 9069.6069)
(91185.939 -660.91767 0 -7603.8207 0 15196.749)
(125354.82 -669.18023 0 -10450.272 0 20891.736)
(156935.6 -675.68325 0 -13081.037 0 26155.375)
(185933.37 -680.40975 0 -15496.543 0 30988.513)
(212353.32 -683.34842 0 -17697.227 0 35392.016)
(236200.13 -684.49378 0 -19683.479 0 39366.664)
(257476.45 -683.84528 0 -21455.524 0 42912.895)
(276179.55 -681.40546 0 -23013.135 0 46030.257)
(292302.41 -677.18053 0 -24355.731 0 48717.577)
(305953.16 -671.18566 0 -25492.322 0 50992.88)
(318337.25 -663.41129 0 -26523.335 0 53057.075)
(339758.2 -653.46691 0 -28307.132 0 56627.467)
(418145.54 -637.49948 0 -34836.59 0 69692.536)
(899940.33 -597.63307 0 -74972.761 0 149994.1)
(1844417.9 -398.13363 0 -153653.72 0 307411.66)
)
;
    }
    frontAndBack
    {
        type            empty;
    }
}


// ************************************************************************* //
