/*--------------------------------*- C++ -*----------------------------------*\
| =========                 |                                                 |
| \\      /  F ield         | OpenFOAM: The Open Source CFD Toolbox           |
|  \\    /   O peration     | Version:  2512                                  |
|   \\  /    A nd           | Website:  www.openfoam.com                      |
|    \\/     M anipulation  |                                                 |
\*---------------------------------------------------------------------------*/
FoamFile
{
    version     2.0;
    format      ascii;
    arch        "LSB;label=32;scalar=64";
    class       volScalarField;
    location    "1";
    object      sigmaHyd;
}
// * * * * * * * * * * * * * * * * * * * * * * * * * * * * * * * * * * * * * //

dimensions      [1 -1 -2 0 0 0 0];

internalField   nonuniform List<scalar> 
160
(
-381559.84
-407445.54
-381997.94
-358208.94
-333546.96
-309385.87
-285893.33
-263113.88
-241052.92
-219710.71
-199086.68
-179180.19
-159990.53
-141516.95
-123758.65
-106714.75
-90384.362
-74766.518
-59860.219
-45664.421
-32178.041
-19399.963
-7329.0321
4035.9321
14696.141
24652.832
33907.271
42460.767
50314.693
57470.465
63929.424
69692.733
74761.827
79143.405
82890.619
86302.473
91428.831
103127.91
179040
7263.3974
-176177.74
-137853.02
-127728.05
-119387.79
-111231.55
-103200.8
-95376.737
-87784.917
-80431.444
-73317.332
-66442.576
-59806.987
-53410.333
-47252.364
-41332.812
-35651.39
-30207.796
-25001.71
-20032.801
-15300.719
-10805.105
-6545.5873
-2521.7814
1266.7054
4820.2756
8139.3394
11224.317
14075.639
16693.755
19079.132
21232.252
23153.762
24845.613
26318.058
27623.684
28998.61
31184.156
35430.83
25496.179
-105999.02
176175.41
137850.97
127726.07
119385.81
111229.57
103198.82
95374.752
87782.942
80429.49
73315.406
66440.686
59805.141
53408.539
47250.628
41331.14
35649.788
30206.268
25000.261
20031.434
15299.44
10803.916
6544.4903
2520.7777
-1267.6169
-4821.0994
-8140.086
-11225.009
-14076.319
-16694.48
-19079.94
-21233.116
-23154.576
-24846.292
-26318.63
-27624.291
-28999.354
-31184.945
-35431.505
-25496.679
105998.46
381558.11
407443.68
381996.05
358207.01
333545.01
309383.91
285891.37
263111.92
241050.98
219708.8
199084.8
179178.35
159988.74
141515.22
123756.98
106713.15
90382.835
74765.069
59858.852
45663.14
32176.85
19398.862
7328.0237
-4036.8503
-14696.973
-24653.584
-33907.957
-42461.417
-50315.359
-57471.19
-63930.2
-69693.469
-74762.458
-79143.96
-82891.224
-86303.228
-91429.617
-103128.48
-179040.3
-7263.3858
)
;

boundaryField
{
    left
    {
        type            zeroGradient;
    }
    right
    {
        type            zeroGradient;
    }
    top
    {
        type            zeroGradient;
    }
    bottom
    {
        type            zeroGradient;
    }
    frontAndBack
    {
        type            empty;
    }
}


// ************************************************************************* //
