/*--------------------------------*- C++ -*----------------------------------*\
| =========                 |                                                 |
| \\      /  F ield         | OpenFOAM: The Open Source CFD Toolbox           |
|  \\    /   O peration     | Version:  2512                                  |
|   \\  /    A nd           | Website:  www.openfoam.com                      |
|    \\/     M anipulation  |                                                 |
\*---------------------------------------------------------------------------*/
FoamFile
{
    version     2.0;
    format      ascii;
    arch        "LSB;label=32;scalar=64";
    class       surfaceSymmTensorField;
    location    "1";
    object      sigmaf;
}
// * * * * * * * * * * * * * * * * * * * * * * * * * * * * * * * * * * * * * //

dimensions      [1 -1 -2 0 0 0 0];

internalField   nonuniform List<symmTensor> 
276
(
(-1280917.5 -38122.95 0 -39620.091 0 -304739.44)
(-869320 -126705.42 0 -20769.377 0 -205405.24)
(-1194571.8 -42079.036 0 -3295.2773 0 -276430.85)
(-822209.26 -86398.806 0 5891.1328 0 -188381.11)
(-1115491.8 -43943.551 0 -45.509822 0 -257431.69)
(-770162.01 -79168.023 0 3801.4388 0 -176852.44)
(-1039551.7 -43555.958 0 239.21146 0 -239841.35)
(-718611.8 -76062.762 0 1549.5117 0 -165475.91)
(-965838.61 -42515.774 0 162.35716 0 -222848.37)
(-668624.14 -73870.3 0 896.77711 0 -154090.93)
(-894272.73 -41324.804 0 127.68281 0 -206341.17)
(-620147.94 -71757.027 0 745.62831 0 -142939)
(-824856.92 -40104.763 0 117.33696 0 -190324.52)
(-573137.21 -69640.513 0 716.23479 0 -132097.15)
(-757596.03 -38879.784 0 114.92537 0 -174803.33)
(-527573.17 -67518.462 0 710.7913 0 -121583.63)
(-692491.07 -37654.067 0 114.52616 0 -159779.2)
(-483449.63 -65394.809 0 709.61236 0 -111401.54)
(-629541.07 -36428.419 0 114.63928 0 -145252.25)
(-440764.1 -63271.281 0 709.05378 0 -101551.17)
(-568744.5 -35202.916 0 114.88333 0 -131222.22)
(-399515 -61148.525 0 708.65417 0 -92032.233)
(-510099.35 -33977.696 0 115.19199 0 -117688.65)
(-359700.95 -59026.778 0 708.19347 0 -82844.481)
(-453603.52 -32752.704 0 115.52403 0 -104651.08)
(-321320.48 -56906.193 0 707.77677 0 -73987.546)
(-399254.62 -31528.055 0 115.89017 0 -92108.938)
(-284372.11 -54786.856 0 707.26335 0 -65461.119)
(-347050.21 -30303.676 0 116.27048 0 -80061.678)
(-248854.19 -52668.871 0 706.79161 0 -57264.785)
(-296987.58 -29079.685 0 116.67945 0 -68508.67)
(-214765.05 -50552.31 0 706.21568 0 -49398.192)
(-249063.99 -27855.998 0 117.10072 0 -57449.283)
(-182102.81 -48437.264 0 705.68847 0 -41860.874)
(-203276.46 -26632.738 0 117.54732 0 -46882.827)
(-150865.62 -46323.796 0 705.05445 0 -34652.439)
(-159621.97 -25409.811 0 118.00503 0 -36808.608)
(-121051.43 -44211.987 0 704.4773 0 -27772.375)
(-118097.29 -24187.346 0 118.48478 0 -27225.879)
(-92658.216 -42101.895 0 703.79232 0 -21220.252)
(-78699.165 -22965.239 0 118.97441 0 -18133.89)
(-65683.754 -39993.588 0 703.17191 0 -14995.519)
(-41424.153 -21743.622 0 119.48261 0 -9531.8469)
(-40125.867 -37887.117 0 702.44315 0 -9097.7133)
(-6268.7844 -20522.387 0 119.99939 0 -1418.9504)
(-15982.204 -35782.541 0 701.78522 0 -3526.2505)
(26770.554 -19301.672 0 120.53141 0 6205.6351)
(6749.5432 -33679.908 0 701.01852 0 1719.3604)
(57697.517 -18081.369 0 121.07204 0 13342.751)
(28071.847 -31579.274 0 700.3258 0 6639.7323)
(86515.889 -16861.626 0 121.62651 0 19993.273)
(47987.128 -29480.696 0 699.52586 0 11235.382)
(113229.52 -15642.379 0 122.20051 0 26158.09)
(66497.965 -27384.261 0 698.79167 0 15506.944)
(137842.46 -14423.829 0 122.8191 0 31838.141)
(83606.902 -25290.086 0 697.98584 0 19454.974)
(160358.86 -13206.021 0 123.59602 0 37034.412)
(99316.57 -23198.319 0 697.2881 0 23080.121)
(180783.07 -11989.138 0 124.90298 0 41747.994)
(113629.4 -21109.098 0 696.84682 0 26382.979)
(199119.87 -10773.563 0 127.98716 0 45980.276)
(126547.25 -19022.864 0 697.27419 0 29364.121)
(215376.23 -9561.4881 0 137.42542 0 49733.92)
(138070.35 -16941.722 0 700.23517 0 32023.981)
(229566.99 -8362.5111 0 170.67338 0 53016.384)
(148194.28 -14873.761 0 712.73615 0 34363.158)
(241733.39 -7221.9166 0 292.56615 0 55852.143)
(156899.75 -12844.885 0 769.48963 0 36385.208)
(251985.48 -6365.817 0 714.60249 0 58315.404)
(164116.19 -10924.512 0 1051.5551 0 38115.634)
(260556.86 -6886.6206 0 1776.9287 0 60538.566)
(169605.13 -9235.5645 0 2425.9702 0 39699.484)
(267317.52 -13539.659 0 2444.7297 0 62252.828)
(172638.64 -7414.5197 0 8556.1556 0 41814.183)
(268046.69 -41761.515 0 -24598.6 0 56180.328)
(171947.57 -1370.2503 0 30120.44 0 46631.079)
(221105.06 -120216.11 0 -196039.51 0 5784.3597)
(168515.36 46318.95 0 80312.802 0 57421.884)
(228447.5 220534.01 0 -118866.12 0 25288.012)
(-432912.02 -111012.58 0 -6728.1104 0 -101455.42)
(-2.9238645 -118823.91 0 -0.35051698 0 -0.75562649)
(-402024.97 -103163.71 0 1243.9895 0 -92487.918)
(-3.0678201 -117285.08 0 0.0080062154 0 -0.7061109)
(-373463.08 -97404.599 0 957.36874 0 -85962.857)
(-3.0910535 -107729.72 0 0.11042899 0 -0.68783642)
(-347316.74 -93897.593 0 459.76658 0 -80043.917)
(-3.100962 -102209.02 0 0.10939862 0 -0.69036078)
(-322512.64 -91043.759 0 315.23457 0 -74353.247)
(-3.1024694 -98674.257 0 0.11365931 0 -0.6897254)
(-298595.88 -88341.615 0 283.60616 0 -68841.293)
(-3.1067198 -95673.62 0 0.097663537 0 -0.69439761)
(-275440.72 -85669.59 0 278.33297 0 -63499.013)
(-3.0967443 -92795.416 0 0.10713851 0 -0.68990902)
(-253015.5 -83003.802 0 277.67322 0 -58324.113)
(-3.0830205 -89943.402 0 0.095249146 0 -0.68948571)
(-231312.03 -80340.157 0 277.59376 0 -53315.639)
(-3.049837 -87097.907 0 0.10992776 0 -0.6784406)
(-210327.82 -77678.081 0 277.51457 0 -48473.147)
(-3.0116723 -84255.088 0 0.098777289 0 -0.67220653)
(-190061.64 -75017.581 0 277.40714 0 -43796.362)
(-2.9528436 -81414.219 0 0.11557812 0 -0.65475358)
(-170512.69 -72358.752 0 277.275 0 -39285.096)
(-2.8904472 -78575.217 0 0.10218165 0 -0.6434459)
(-151680.14 -69701.717 0 277.13206 0 -34939.156)
(-2.8076569 -75738.155 0 0.11863792 0 -0.62054284)
(-133563.23 -67046.594 0 276.9738 0 -30758.366)
(-2.7235039 -72903.149 0 0.10137902 0 -0.60510573)
(-116161.08 -64393.507 0 276.80773 0 -26742.525)
(-2.6196767 -70070.328 0 0.11653607 0 -0.57764785)
(-99472.854 -61742.571 0 276.62858 0 -22891.437)
(-2.5167911 -67239.824 0 0.095427371 0 -0.55877624)
(-83497.582 -59093.901 0 276.44251 0 -19204.878)
(-2.3950667 -64411.762 0 0.10946913 0 -0.5274456)
(-68234.314 -56447.6 0 276.24523 0 -15682.631)
(-2.2764706 -61586.262 0 0.08528678 0 -0.50565781)
(-53682.011 -53803.771 0 276.04193 0 -12324.454)
(-2.1399613 -58763.438 0 0.098739607 0 -0.47105115)
(-39839.631 -51162.503 0 275.82944 0 -9130.108)
(-2.008743 -55943.397 0 0.072530831 0 -0.44681819)
(-26706.062 -48523.888 0 275.61182 0 -6099.3346)
(-1.8609516 -53126.238 0 0.086191282 0 -0.40956008)
(-14280.186 -45888 0 275.38683 0 -3231.8766)
(-1.7213619 -50312.053 0 0.059247687 0 -0.38356481)
(-2560.8282 -43254.921 0 275.15729 0 -527.46252)
(-1.5684558 -47500.929 0 0.073954523 0 -0.34488491)
(8453.1919 -40624.719 0 274.92141 0 2014.18)
(-1.4302736 -44692.947 0 0.047464033 0 -0.3191099)
(18763.097 -37997.472 0 274.6802 0 4393.3333)
(-1.2875016 -41888.187 0 0.065351936 0 -0.28203453)
(28370.119 -35373.259 0 274.42483 0 6610.2793)
(-1.1724211 -39086.73 0 0.041401889 0 -0.26100443)
(37275.499 -32752.178 0 274.14555 0 8665.3026)
(-1.0656205 -36288.666 0 0.054582069 0 -0.23331657)
(45480.432 -30134.33 0 273.80431 0 10558.67)
(-0.9942925 -33494.067 0 -0.0062434762 0 -0.23089292)
(52985.867 -27519.623 0 273.38147 0 12290.596)
(-0.94161692 -30702.834 0 -0.10750773 0 -0.24210569)
(59791.987 -24907.538 0 272.82595 0 13861.111)
(-0.93521804 -27914.325 0 -0.3142743 0 -0.28834439)
(65896.646 -22296.769 0 271.98154 0 15269.683)
(-0.96650093 -25126.666 0 -0.46400153 0 -0.33011595)
(71290.787 -19684.524 0 270.67831 0 16514.184)
(-1.0321882 -22335.009 0 -0.41373814 0 -0.33367532)
(75942.958 -17061.744 0 271.62374 0 17587.98)
(-1.0722932 -19525.071 0 -0.030775974 0 -0.25455442)
(79743.446 -14385.255 0 302.41229 0 18472.121)
(-1.0766757 -16644.495 0 0.3135329 0 -0.17610988)
(82291.874 -11430.536 0 528.03809 0 19112.287)
(-1.0139621 -13471.996 0 0.3104037 0 -0.16235964)
(82092.483 -7104.7637 0 1704.9508 0 19337.869)
(-0.88479848 -9035.2432 0 -0.1065959 0 -0.22878332)
(73896.46 3348.8578 0 5993.9275 0 18436.243)
(-0.69132769 782.13904 0 -0.53902202 0 -0.28392686)
(41933.102 35363.959 0 14653.346 0 13058.411)
(-0.53881999 30591.465 0 -0.6048418 0 -0.26392195)
(-29689.469 117565.6 0 -48317.561 0 -18001.622)
(-0.3750138 117927.49 0 -0.37148067 0 -0.17226796)
(-0.10057497 190796.95 0 -0.47847079 0 -0.13362594)
(432905.87 -111012.41 0 6727.7434 0 101453.91)
(869314.25 -126704.93 0 20768.893 0 205403.8)
(402018.73 -103163.54 0 -1243.9625 0 92486.486)
(822203.42 -86398.513 0 -5891.1235 0 188379.76)
(373456.86 -97404.359 0 -957.24175 0 85961.451)
(770156.09 -79167.608 0 -3801.3209 0 176851.1)
(347310.5 -93897.258 0 -459.63463 0 80042.508)
(718605.82 -76062.181 0 -1549.3883 0 165474.56)
(322506.41 -91043.347 0 -315.10067 0 74351.841)
(668618.13 -73869.542 0 -896.65333 0 154089.57)
(298589.64 -88341.118 0 -283.48022 0 68839.882)
(620141.91 -71756.118 0 -745.50984 0 142937.63)
(275434.52 -85669.029 0 -278.20184 0 63497.613)
(573131.18 -69639.449 0 -716.11346 0 132095.79)
(253009.33 -83003.162 0 -277.54469 0 58322.719)
(527567.17 -67517.263 0 -710.67278 0 121582.27)
(231305.95 -80339.458 0 -277.45657 0 53314.267)
(483443.68 -65393.466 0 -709.48869 0 111400.2)
(210321.82 -77677.307 0 -277.37727 0 48471.794)
(440758.23 -63269.811 0 -708.9315 0 101549.84)
(190055.78 -75016.754 0 -277.26114 0 43795.043)
(399509.23 -61146.92 0 -708.52484 0 92030.932)
(170506.96 -72357.854 0 -277.12979 0 39283.806)
(359695.31 -59025.054 0 -708.06619 0 82843.209)
(151674.59 -69700.771 0 -276.98141 0 34937.909)
(321314.99 -56904.343 0 -707.64286 0 73986.31)
(133557.85 -67045.58 0 -276.82717 0 30757.159)
(284366.79 -54784.896 0 -707.13473 0 65459.921)
(116155.93 -64392.452 0 -276.66011 0 26741.37)
(248849.07 -52666.797 0 -706.65848 0 57263.633)
(99467.914 -61741.452 0 -276.48836 0 22890.329)
(214760.13 -50550.136 0 -706.09196 0 49397.085)
(83492.894 -59092.748 0 -276.30527 0 19203.828)
(182098.12 -48434.987 0 -705.56246 0 41859.821)
(68229.873 -56446.389 0 -276.11777 0 15681.636)
(150861.17 -46321.431 0 -704.94145 0 34651.437)
(53677.848 -53802.533 0 -275.9201 0 12323.522)
(121047.24 -44209.533 0 -704.36341 0 27771.433)
(39835.741 -51161.213 0 -275.71805 0 9129.2361)
(92654.284 -42099.365 0 -703.69374 0 21219.367)
(26702.469 -48522.577 0 -275.50684 0 6098.5297)
(65680.1 -39990.983 0 -703.07236 0 14994.699)
(14276.882 -45886.645 0 -275.29116 0 3231.1364)
(40122.494 -37884.449 0 -702.35984 0 9096.9539)
(2557.8249 -43253.553 0 -275.06723 0 526.79023)
(15979.117 -35779.814 0 -701.70015 0 3525.5578)
(-8455.9144 -40623.313 0 -274.83734 0 -2014.7889)
(-6752.3538 -33677.132 0 -700.95067 0 -1719.9933)
(-18765.554 -37996.059 0 -274.59929 0 -4393.8815)
(-28074.39 -31576.453 0 -700.25263 0 -6640.3021)
(-28372.357 -35371.814 0 -274.35634 0 -6610.7799)
(-47989.436 -29477.839 0 -699.47219 0 -11235.902)
(-37277.563 -32750.74 0 -274.12783 0 -8665.7748)
(-66500.07 -27381.377 0 -698.74429 0 -15507.419)
(-45482.374 -30132.892 0 -273.94334 0 -10559.15)
(-83608.87 -25287.204 0 -698.03999 0 -19455.441)
(-52987.724 -27518.223 0 -273.78394 0 -12291.117)
(-99318.476 -23195.455 0 -697.55585 0 -23080.623)
(-59793.811 -24906.141 0 -273.48412 0 -13861.684)
(-113631.32 -21106.254 0 -697.38962 0 -26383.548)
(-65898.522 -22295.338 0 -272.62891 0 -15270.266)
(-126549.23 -19019.994 0 -697.92797 0 -29364.728)
(-71292.802 -19683.002 0 -270.89554 0 -16514.699)
(-138072.35 -16938.787 0 -700.55532 0 -32024.517)
(-75945.159 -17060.235 0 -271.28461 0 -17588.41)
(-148196.3 -14870.803 0 -712.44782 0 -34363.558)
(-79745.675 -14383.846 0 -301.90835 0 -18472.519)
(-156901.79 -12842.038 0 -768.85461 0 -36385.533)
(-82293.912 -11429.269 0 -528.00627 0 -19112.75)
(-164118.24 -10921.824 0 -1051.2297 0 -38116.032)
(-82094.05 -7103.5664 0 -1705.629 0 -19338.387)
(-169607.13 -9233.0122 0 -2426.4873 0 -39700.067)
(-73897.5 3350.067 0 -5994.8784 0 -18436.703)
(-172640.37 -7412.0215 0 -8557.2484 0 -41814.836)
(-41933.999 35365.169 0 -14654.088 0 -13058.789)
(-171948.82 -1367.8419 0 -30121.248 0 -46631.554)
(29688.921 117566.59 0 48316.998 0 18001.366)
(-168516.15 46321.192 0 -80313.096 0 -57422.134)
(-228447.75 220535.53 0 118865.92 0 -25288.113)
(1280911.9 -38122.815 0 39619.889 0 304738.11)
(1194566.2 -42078.897 0 3295.3165 0 276429.57)
(1115486.1 -43943.324 0 45.592739 0 257430.39)
(1039546 -43555.624 0 -239.1137 0 239840.04)
(965832.77 -42515.364 0 -162.26793 0 222847.04)
(894266.89 -41324.305 0 -127.5888 0 206339.84)
(824851.06 -40104.203 0 -117.25095 0 190323.19)
(757590.23 -38879.143 0 -114.83325 0 174802.01)
(692485.31 -37653.37 0 -114.44038 0 159777.89)
(629535.42 -36427.644 0 -114.54677 0 145250.97)
(568738.94 -35202.09 0 -114.7964 0 131220.96)
(510093.94 -33976.795 0 -115.09912 0 117687.42)
(453598.24 -32751.759 0 -115.43724 0 104649.88)
(399249.54 -31527.039 0 -115.79943 0 92107.785)
(347045.3 -30302.623 0 -116.18691 0 80060.564)
(296982.9 -29078.564 0 -116.59424 0 68507.609)
(249059.52 -27854.847 0 -117.02362 0 57448.269)
(203272.24 -26631.524 0 -117.47057 0 46881.871)
(159617.99 -25408.576 0 -117.93673 0 36807.705)
(118093.59 -24186.053 0 -118.41809 0 27225.039)
(78695.721 -22963.932 0 -118.91567 0 18133.109)
(41420.992 -21742.264 0 -119.42593 0 9531.1307)
(6265.8898 -20521.024 0 -119.94973 0 1418.2939)
(-26773.176 -19300.262 0 -120.48329 0 -6206.2291)
(-57699.897 -18079.961 0 -121.03069 0 -13343.291)
(-86518.042 -16860.173 0 -121.59267 0 -19993.762)
(-113231.51 -15640.948 0 -122.19906 0 -26158.548)
(-137844.34 -14422.412 0 -122.89449 0 -31838.592)
(-160360.73 -13204.654 0 -123.7885 0 -37034.888)
(-180785.01 -11987.755 0 -125.18032 0 -41748.504)
(-199121.9 -10772.079 0 -128.21435 0 -45980.796)
(-215378.26 -9559.8767 0 -137.43082 0 -49734.39)
(-229569.09 -8360.9621 0 -170.49101 0 -53016.826)
(-241735.42 -7220.5644 0 -292.36939 0 -55852.567)
(-251987.58 -6364.6856 0 -714.69256 0 -58315.91)
(-260558.91 -6885.5019 0 -1777.3542 0 -60539.138)
(-267319.26 -13538.355 0 -2445.2333 0 -62253.345)
(-268047.79 -41760.185 0 24598.303 0 -56180.652)
(-221105.87 -120215.06 0 196039.3 0 -5784.5934)
)
;

boundaryField
{
    left
    {
        type            calculated;
        value           nonuniform List<symmTensor> 4((-1407603.9 -60812.553 0 -139848.83 0 -357104.47) (-425035.65 -92202.169 0 -127510.69 0 -127510.69) (425029.9 -92201.764 0 127508.97 0 127508.97) (1407598.1 -60811.904 0 139848.29 0 357103.01));
    }
    right
    {
        type            calculated;
        value           nonuniform List<symmTensor> 4((-51.436711 402.04929 0 -1969353.5 0 -454478.07) (-17.318891 601.43837 0 -669897.74 0 -154595.78) (17.319879 601.43385 0 669895.91 0 154595.36) (51.436387 402.04429 0 1969354.2 0 454478.21));
    }
    top
    {
        type            calculated;
        value           nonuniform List<symmTensor> 
40
(
(1366550.1 -28.681623 0 15.841057 0 315361.36)
(1587026.9 -54.967329 0 20.021009 0 366241.61)
(1522767.9 -87.723293 0 20.575071 0 351412.72)
(1432108.1 -122.11696 0 20.57161 0 330491.23)
(1334023 -156.45079 0 20.375623 0 307856.17)
(1237372.6 -190.4067 0 20.106053 0 285552.17)
(1143383.9 -223.86219 0 19.780915 0 263862.39)
(1052260 -256.72763 0 19.403658 0 242833.71)
(964015.24 -288.91718 0 18.975458 0 222469.43)
(878646.79 -320.34653 0 18.497425 0 202768.91)
(796151.43 -350.93321 0 17.970804 0 183731.4)
(716526.34 -380.59689 0 17.396977 0 165356.25)
(639768.67 -409.25966 0 16.777449 0 147642.8)
(565875.4 -436.84624 0 16.113845 0 130590.35)
(494843.3 -463.28415 0 15.407904 0 114198.16)
(426668.92 -488.50393 0 14.66148 0 98465.443)
(361348.63 -512.43931 0 13.876532 0 83391.347)
(298878.58 -535.02741 0 13.055121 0 68974.992)
(239254.77 -556.20885 0 12.199405 0 55215.454)
(182473.02 -575.92799 0 11.311632 0 42111.768)
(128528.99 -594.13301 0 10.394135 0 29662.935)
(77418.211 -610.77606 0 9.4493231 0 17867.922)
(29136.056 -625.8134 0 8.4796811 0 6725.6622)
(-16322.209 -639.20549 0 7.4877579 0 -3764.9357)
(-58961.439 -650.91711 0 6.4761642 0 -13604.991)
(-98786.585 -660.9174 0 5.4475631 0 -22795.647)
(-135802.72 -669.17989 0 4.4046833 0 -31338.073)
(-170015.15 -675.68271 0 3.3503675 0 -39233.492)
(-201429.45 -680.40901 0 2.2876054 0 -46483.191)
(-230051.28 -683.34782 0 1.2194349 0 -53088.477)
(-255885.62 -684.49397 0 0.14863429 0 -59050.494)
(-278935.07 -683.84653 0 -0.92251465 0 -64369.844)
(-299196.64 -681.40694 0 -1.9919029 0 -69045.837)
(-316662.91 -677.18083 0 -3.0567893 0 -73076.762)
(-331451.34 -671.18423 0 -4.1165342 0 -76489.721)
(-344867.83 -663.40912 0 -5.200959 0 -79586.085)
(-368074.04 -653.46583 0 -6.5998575 0 -84941.685)
(-452993.28 -637.49981 0 -9.6769493 0 -104539.14)
(-974938 -597.6332 0 -24.29033 0 -224991.3)
(-1998124.1 -398.13207 0 -52.107614 0 -461117.59)
)
;
    }
    bottom
    {
        type            calculated;
        value           nonuniform List<symmTensor> 
40
(
(-1366554.4 -28.678509 0 -15.83873 0 -315362.36)
(-1587032.1 -54.966121 0 -20.018238 0 -366242.8)
(-1522773.4 -87.722973 0 -20.572106 0 -351413.99)
(-1432113.8 -122.11688 0 -20.568527 0 -330492.55)
(-1334028.9 -156.45077 0 -20.372488 0 -307857.52)
(-1237378.5 -190.4067 0 -20.102897 0 -285553.53)
(-1143389.8 -223.86221 0 -19.777757 0 -263863.74)
(-1052265.8 -256.72767 0 -19.400512 0 -242835.06)
(-964021.04 -288.91725 0 -18.972338 0 -222470.77)
(-878652.52 -320.34662 0 -18.494344 0 -202770.23)
(-796157.05 -350.93333 0 -17.967776 0 -183732.7)
(-716531.84 -380.59703 0 -17.394015 0 -165357.52)
(-639774.03 -409.25984 0 -16.774564 0 -147644.03)
(-565880.6 -436.84644 0 -16.111047 0 -130591.55)
(-494848.32 -463.28438 0 -15.405206 0 -114199.32)
(-426673.74 -488.50418 0 -14.658891 0 -98466.553)
(-361353.22 -512.43958 0 -13.87406 0 -83392.406)
(-298882.94 -535.02769 0 -13.052774 0 -68975.998)
(-239258.88 -556.20916 0 -12.197191 0 -55216.403)
(-182476.88 -575.92831 0 -11.309557 0 -42112.658)
(-128532.58 -594.13333 0 -10.392203 0 -29663.764)
(-77421.529 -610.77639 0 -9.4475377 0 -17868.687)
(-29139.102 -625.81372 0 -8.4780427 0 -6726.3646)
(16319.431 -639.2058 0 -7.4862636 0 3764.295)
(58958.92 -650.9174 0 -6.4748089 0 13604.41)
(98784.313 -660.91767 0 -5.4463409 0 22795.123)
(135800.69 -669.18023 0 -4.4035878 0 31337.604)
(170013.29 -675.68325 0 -3.3493654 0 39233.062)
(201427.62 -680.40975 0 -2.2866236 0 46482.77)
(230049.33 -683.34842 0 -1.2183808 0 53088.025)
(255883.46 -684.49378 0 -0.14747166 0 59049.996)
(278932.89 -683.84528 0 0.9236838 0 64369.342)
(299194.68 -681.40546 0 1.9929569 0 69045.385)
(316661.19 -677.18053 0 3.0577132 0 73076.366)
(331449.6 -671.18566 0 4.1174707 0 76489.319)
(344865.78 -663.41129 0 5.2020613 0 79585.612)
(368071.93 -653.46691 0 6.6009885 0 84941.2)
(452991.81 -637.49948 0 9.6777407 0 104538.8)
(974937.39 -597.63307 0 24.290661 0 224991.16)
(1998123.7 -398.13363 0 52.107827 0 461117.5)
)
;
    }
    frontAndBack
    {
        type            empty;
    }
}


// ************************************************************************* //
