/*--------------------------------*- C++ -*----------------------------------*\
| =========                 |                                                 |
| \\      /  F ield         | OpenFOAM: The Open Source CFD Toolbox           |
|  \\    /   O peration     | Version:  2512                                  |
|   \\  /    A nd           | Website:  www.openfoam.com                      |
|    \\/     M anipulation  |                                                 |
\*---------------------------------------------------------------------------*/
FoamFile
{
    version     2.0;
    format      ascii;
    arch        "LSB;label=32;scalar=64";
    class       volVectorField;
    location    "0.3";
    object      D_0;
}
// * * * * * * * * * * * * * * * * * * * * * * * * * * * * * * * * * * * * * //

dimensions      [0 1 0 0 0 0 0];

internalField   nonuniform List<vector> 
160
(
(-6.1964095e-08 -3.6015955e-08 0)
(-1.7405353e-07 -1.4824541e-07 0)
(-2.7675719e-07 -3.2762959e-07 0)
(-3.7003164e-07 -5.7067183e-07 0)
(-4.5429254e-07 -8.7186289e-07 0)
(-5.2993792e-07 -1.2253592e-06 0)
(-5.9736679e-07 -1.6255498e-06 0)
(-6.5697484e-07 -2.0670911e-06 0)
(-7.0915416e-07 -2.5449054e-06 0)
(-7.5429294e-07 -3.0541769e-06 0)
(-7.9277486e-07 -3.5903478e-06 0)
(-8.2497881e-07 -4.1491152e-06 0)
(-8.5127841e-07 -4.7264281e-06 0)
(-8.720418e-07 -5.3184826e-06 0)
(-8.8763121e-07 -5.9217194e-06 0)
(-8.9840283e-07 -6.5328186e-06 0)
(-9.0470647e-07 -7.1486964e-06 0)
(-9.0688551e-07 -7.7665e-06 0)
(-9.0527662e-07 -8.3836038e-06 0)
(-9.002098e-07 -8.9976043e-06 0)
(-8.9200817e-07 -9.606316e-06 0)
(-8.8098809e-07 -1.0207766e-05 0)
(-8.6745905e-07 -1.0800192e-05 0)
(-8.5172375e-07 -1.1382032e-05 0)
(-8.3407817e-07 -1.1951928e-05 0)
(-8.1481164e-07 -1.2508712e-05 0)
(-7.9420687e-07 -1.3051411e-05 0)
(-7.7254011e-07 -1.3579236e-05 0)
(-7.500811e-07 -1.4091581e-05 0)
(-7.270932e-07 -1.4588016e-05 0)
(-7.0383374e-07 -1.5068285e-05 0)
(-6.8055475e-07 -1.5532297e-05 0)
(-6.5750361e-07 -1.5980129e-05 0)
(-6.3492325e-07 -1.6412022e-05 0)
(-6.1304999e-07 -1.6828384e-05 0)
(-5.9211162e-07 -1.7229804e-05 0)
(-5.7232181e-07 -1.7617055e-05 0)
(-5.5387745e-07 -1.7990918e-05 0)
(-5.3676597e-07 -1.8350768e-05 0)
(-5.2124054e-07 -1.8677722e-05 0)
(-1.7234642e-08 -1.483728e-08 0)
(-5.5107941e-08 -1.263151e-07 0)
(-8.9721269e-08 -3.0766715e-07 0)
(-1.2101893e-07 -5.5272814e-07 0)
(-1.4923793e-07 -8.5573621e-07 0)
(-1.7456503e-07 -1.2109291e-06 0)
(-1.9714782e-07 -1.6127268e-06 0)
(-2.1712159e-07 -2.0557943e-06 0)
(-2.3461779e-07 -2.5350566e-06 0)
(-2.4976582e-07 -3.0456988e-06 0)
(-2.6269357e-07 -3.5831643e-06 0)
(-2.7352718e-07 -4.1431512e-06 0)
(-2.8239114e-07 -4.7216093e-06 0)
(-2.8940805e-07 -5.3147362e-06 0)
(-2.946986e-07 -5.9189736e-06 0)
(-2.9838142e-07 -6.5310028e-06 0)
(-3.0057309e-07 -7.1477413e-06 0)
(-3.0138801e-07 -7.7663377e-06 0)
(-3.0093837e-07 -8.3841676e-06 0)
(-2.9933415e-07 -8.9988289e-06 0)
(-2.9668306e-07 -9.6081374e-06 0)
(-2.9309053e-07 -1.0210122e-05 0)
(-2.8865975e-07 -1.0803021e-05 0)
(-2.8349164e-07 -1.1385274e-05 0)
(-2.7768488e-07 -1.1955524e-05 0)
(-2.7133596e-07 -1.2512606e-05 0)
(-2.6453916e-07 -1.3055547e-05 0)
(-2.5738661e-07 -1.3583559e-05 0)
(-2.4996829e-07 -1.4096037e-05 0)
(-2.4237212e-07 -1.4592553e-05 0)
(-2.3468413e-07 -1.5072852e-05 0)
(-2.2698886e-07 -1.5536844e-05 0)
(-2.1936974e-07 -1.5984607e-05 0)
(-2.1191024e-07 -1.6416378e-05 0)
(-2.046977e-07 -1.6832561e-05 0)
(-1.9783969e-07 -1.7233697e-05 0)
(-1.915268e-07 -1.7620373e-05 0)
(-1.8623719e-07 -1.7992843e-05 0)
(-1.8323349e-07 -1.8349916e-05 0)
(-1.8340401e-07 -1.8687567e-05 0)
(1.722975e-08 -1.4836296e-08 0)
(5.5091774e-08 -1.2631337e-07 0)
(8.9693475e-08 -3.0766523e-07 0)
(1.2097952e-07 -5.5272622e-07 0)
(1.491869e-07 -8.5573429e-07 0)
(1.7450248e-07 -1.2109272e-06 0)
(1.9707379e-07 -1.6127249e-06 0)
(2.1703623e-07 -2.0557925e-06 0)
(2.3452124e-07 -2.5350547e-06 0)
(2.4965834e-07 -3.045697e-06 0)
(2.625754e-07 -3.5831625e-06 0)
(2.7339869e-07 -4.1431495e-06 0)
(2.8225267e-07 -4.7216077e-06 0)
(2.8926004e-07 -5.3147347e-06 0)
(2.9454149e-07 -5.9189721e-06 0)
(2.9821571e-07 -6.5310014e-06 0)
(3.0039929e-07 -7.14774e-06 0)
(3.0120666e-07 -7.7663365e-06 0)
(3.0075004e-07 -8.3841664e-06 0)
(2.9913941e-07 -8.9988279e-06 0)
(2.9648248e-07 -9.6081365e-06 0)
(2.9288471e-07 -1.0210121e-05 0)
(2.8844927e-07 -1.080302e-05 0)
(2.8327706e-07 -1.1385274e-05 0)
(2.7746674e-07 -1.1955524e-05 0)
(2.7111473e-07 -1.2512606e-05 0)
(2.6431524e-07 -1.3055546e-05 0)
(2.5716034e-07 -1.3583558e-05 0)
(2.4973993e-07 -1.4096036e-05 0)
(2.4214193e-07 -1.4592553e-05 0)
(2.3445226e-07 -1.5072852e-05 0)
(2.2675516e-07 -1.5536845e-05 0)
(2.1913373e-07 -1.5984606e-05 0)
(2.1167125e-07 -1.6416377e-05 0)
(2.0445551e-07 -1.683256e-05 0)
(1.9759473e-07 -1.7233697e-05 0)
(1.9128005e-07 -1.7620374e-05 0)
(1.8598949e-07 -1.7992844e-05 0)
(1.8298485e-07 -1.8349916e-05 0)
(1.8315482e-07 -1.8687568e-05 0)
(6.1958819e-08 -3.6012655e-08 0)
(1.7403803e-07 -1.482404e-07 0)
(2.7673127e-07 -3.2762415e-07 0)
(3.6999508e-07 -5.7066637e-07 0)
(4.5424525e-07 -8.7185743e-07 0)
(5.2987984e-07 -1.2253538e-06 0)
(5.9729797e-07 -1.6255445e-06 0)
(6.5689534e-07 -2.0670858e-06 0)
(7.0906416e-07 -2.5449002e-06 0)
(7.5419261e-07 -3.0541718e-06 0)
(7.9266448e-07 -3.5903428e-06 0)
(8.2485865e-07 -4.1491104e-06 0)
(8.5114884e-07 -4.7264234e-06 0)
(8.7190318e-07 -5.3184781e-06 0)
(8.8748399e-07 -5.9217151e-06 0)
(8.9824744e-07 -6.5328146e-06 0)
(9.0454341e-07 -7.1486926e-06 0)
(9.0671526e-07 -7.7664965e-06 0)
(9.0509973e-07 -8.3836006e-06 0)
(9.0002678e-07 -8.9976013e-06 0)
(8.9181958e-07 -9.6063133e-06 0)
(8.8079447e-07 -1.0207764e-05 0)
(8.6726094e-07 -1.080019e-05 0)
(8.5152168e-07 -1.1382031e-05 0)
(8.3387264e-07 -1.1951926e-05 0)
(8.1460309e-07 -1.2508711e-05 0)
(7.9399571e-07 -1.305141e-05 0)
(7.7232666e-07 -1.3579235e-05 0)
(7.4986557e-07 -1.409158e-05 0)
(7.2687565e-07 -1.4588016e-05 0)
(7.0361408e-07 -1.5068285e-05 0)
(6.8033275e-07 -1.5532297e-05 0)
(6.572791e-07 -1.5980128e-05 0)
(6.3469596e-07 -1.6412019e-05 0)
(6.1281993e-07 -1.6828382e-05 0)
(5.918787e-07 -1.7229804e-05 0)
(5.7208618e-07 -1.7617056e-05 0)
(5.5363954e-07 -1.7990919e-05 0)
(5.3652659e-07 -1.8350768e-05 0)
(5.2100001e-07 -1.8677723e-05 0)
)
;

boundaryField
{
    left
    {
        nonOrthogonalCorrections true;
        type            fixedDisplacement;
        value           uniform (0 0 0);
    }
    right
    {
        type            solidTraction;
        nonOrthogonalCorrections true;
        useUndeformedArea false;
        traction        uniform (0 0 0);
        pressure        uniform 0;
        secondOrder     false;
        extrapolateValue false;
        setEffectiveTraction false;
        relaxationFactor 1;
        value           nonuniform List<vector> 4((-5.0668364e-07 -1.8790344e-05 0) (-1.7837889e-07 -1.8857513e-05 0) (1.7813014e-07 -1.8857515e-05 0) (5.0644297e-07 -1.8790347e-05 0));
        gradient        uniform (0 0 0);
    }
    top
    {
        type            solidTraction;
        nonOrthogonalCorrections true;
        useUndeformedArea false;
        traction        uniform (0 0 0);
        pressure        uniform 0;
        secondOrder     false;
        extrapolateValue false;
        setEffectiveTraction false;
        relaxationFactor 1;
        value           nonuniform List<vector> 
40
(
(1.0414123e-07 -5.4524625e-08 0)
(2.470082e-07 -1.6901283e-07 0)
(3.813366e-07 -3.4694798e-07 0)
(5.0489466e-07 -5.8829935e-07 0)
(6.166774e-07 -8.8774907e-07 0)
(7.1701418e-07 -1.2395661e-06 0)
(8.0640184e-07 -1.6381543e-06 0)
(8.8536591e-07 -2.0781718e-06 0)
(9.5443011e-07 -2.5545407e-06 0)
(1.0141127e-06 -3.062444e-06 0)
(1.0649261e-06 -3.5973231e-06 0)
(1.1073758e-06 -4.1548743e-06 0)
(1.1419606e-06 -4.7310451e-06 0)
(1.1691717e-06 -5.3220308e-06 0)
(1.1894925e-06 -5.9242706e-06 0)
(1.2033982e-06 -6.5344436e-06 0)
(1.2113555e-06 -7.1494646e-06 0)
(1.2138224e-06 -7.7664794e-06 0)
(1.2112479e-06 -8.3828611e-06 0)
(1.2040723e-06 -8.9962049e-06 0)
(1.1927262e-06 -9.6043238e-06 0)
(1.1776316e-06 -1.0205244e-05 0)
(1.1592011e-06 -1.07972e-05 0)
(1.1378381e-06 -1.1378632e-05 0)
(1.1139371e-06 -1.1948176e-05 0)
(1.0878838e-06 -1.2504667e-05 0)
(1.0600551e-06 -1.3047129e-05 0)
(1.0308191e-06 -1.3574771e-05 0)
(1.0005351e-06 -1.4086986e-05 0)
(9.6955357e-07 -1.4583343e-05 0)
(9.3821641e-07 -1.5063585e-05 0)
(9.0685867e-07 -1.5527619e-05 0)
(8.7581077e-07 -1.5975521e-05 0)
(8.4539918e-07 -1.6407532e-05 0)
(8.1594381e-07 -1.6824062e-05 0)
(7.8774228e-07 -1.7225685e-05 0)
(7.6096535e-07 -1.7613091e-05 0)
(7.3480192e-07 -1.798668e-05 0)
(7.0433775e-07 -1.8343075e-05 0)
(6.3198673e-07 -1.8662919e-05 0)
)
;
        gradient        uniform (0 0 0);
    }
    bottom
    {
        type            solidTraction;
        nonOrthogonalCorrections true;
        useUndeformedArea false;
        traction        uniform (0 0 0);
        pressure        uniform 0;
        secondOrder     false;
        extrapolateValue false;
        setEffectiveTraction false;
        relaxationFactor 1;
        value           nonuniform List<vector> 
40
(
(-1.0414813e-07 -5.4529138e-08 0)
(-2.4702433e-07 -1.6901928e-07 0)
(-3.8136266e-07 -3.4695497e-07 0)
(-5.0493124e-07 -5.8830641e-07 0)
(-6.1672468e-07 -8.8775615e-07 0)
(-7.1707224e-07 -1.2395731e-06 0)
(-8.0647062e-07 -1.6381613e-06 0)
(-8.8544536e-07 -2.0781787e-06 0)
(-9.5452004e-07 -2.5545474e-06 0)
(-1.014213e-06 -3.0624506e-06 0)
(-1.0650364e-06 -3.5973296e-06 0)
(-1.1074959e-06 -4.1548805e-06 0)
(-1.1420901e-06 -4.7310511e-06 0)
(-1.1693102e-06 -5.3220365e-06 0)
(-1.1896396e-06 -5.9242761e-06 0)
(-1.2035534e-06 -6.5344488e-06 0)
(-1.2115184e-06 -7.1494695e-06 0)
(-1.2139924e-06 -7.7664839e-06 0)
(-1.2114247e-06 -8.3828653e-06 0)
(-1.2042551e-06 -8.9962087e-06 0)
(-1.1929146e-06 -9.6043273e-06 0)
(-1.1778251e-06 -1.0205247e-05 0)
(-1.159399e-06 -1.0797203e-05 0)
(-1.13804e-06 -1.1378634e-05 0)
(-1.1141425e-06 -1.1948178e-05 0)
(-1.0880923e-06 -1.2504669e-05 0)
(-1.0602661e-06 -1.304713e-05 0)
(-1.0310323e-06 -1.3574772e-05 0)
(-1.0007503e-06 -1.4086986e-05 0)
(-9.6977087e-07 -1.4583343e-05 0)
(-9.3843618e-07 -1.5063584e-05 0)
(-9.0708125e-07 -1.5527619e-05 0)
(-8.7603597e-07 -1.5975523e-05 0)
(-8.4562665e-07 -1.6407535e-05 0)
(-8.1617328e-07 -1.6824064e-05 0)
(-7.8797428e-07 -1.7225686e-05 0)
(-7.6120054e-07 -1.761309e-05 0)
(-7.3504001e-07 -1.7986679e-05 0)
(-7.0457719e-07 -1.8343075e-05 0)
(-6.3222655e-07 -1.8662919e-05 0)
)
;
        gradient        uniform (0 0 0);
    }
    frontAndBack
    {
        type            empty;
    }
}


// ************************************************************************* //
