/*--------------------------------*- C++ -*----------------------------------*\
| =========                 |                                                 |
| \\      /  F ield         | OpenFOAM: The Open Source CFD Toolbox           |
|  \\    /   O peration     | Version:  2512                                  |
|   \\  /    A nd           | Website:  www.openfoam.com                      |
|    \\/     M anipulation  |                                                 |
\*---------------------------------------------------------------------------*/
FoamFile
{
    version     2.0;
    format      ascii;
    arch        "LSB;label=32;scalar=64";
    class       volScalarField;
    location    "0.3";
    object      epsilonEq;
}
// * * * * * * * * * * * * * * * * * * * * * * * * * * * * * * * * * * * * * //

dimensions      [0 0 0 0 0 0 0];

internalField   nonuniform List<scalar> 
160
(
3.5096109e-06
3.7459581e-06
3.5244264e-06
3.2481963e-06
2.9676023e-06
2.6962623e-06
2.435911e-06
2.1867242e-06
1.9486669e-06
1.7217032e-06
1.5058123e-06
1.3009962e-06
1.1072974e-06
9.2483494e-07
7.538799e-07
5.9502845e-07
4.4964776e-07
3.2120273e-07
2.1964077e-07
1.7132469e-07
1.979275e-07
2.6661133e-07
3.4513012e-07
4.2186347e-07
4.9291314e-07
5.5679405e-07
6.128912e-07
6.6095617e-07
7.009162e-07
7.3278671e-07
7.5662075e-07
7.7247695e-07
7.8040109e-07
7.8041478e-07
7.7251907e-07
7.5740189e-07
7.4465499e-07
7.9732322e-07
1.369402e-06
3.7341844e-06
1.5296681e-06
1.4978484e-06
1.3883841e-06
1.284928e-06
1.1907802e-06
1.1023016e-06
1.0182395e-06
9.3830366e-07
8.6247157e-07
7.9078485e-07
7.2330702e-07
6.6011767e-07
6.0131346e-07
5.470095e-07
4.9733922e-07
4.524507e-07
4.1249714e-07
3.7761823e-07
3.479099e-07
3.2338281e-07
3.0391547e-07
2.8921578e-07
2.7880785e-07
2.7205558e-07
2.6821918e-07
2.6652737e-07
2.6624329e-07
2.6671021e-07
2.6737026e-07
2.6776329e-07
2.6752022e-07
2.6636096e-07
2.6408701e-07
2.6052292e-07
2.552758e-07
2.470138e-07
2.3299635e-07
2.3028905e-07
4.5586994e-07
1.1819759e-06
1.5294917e-06
1.4976434e-06
1.3881694e-06
1.2847099e-06
1.1905609e-06
1.1020823e-06
1.018021e-06
9.3808719e-07
8.6225825e-07
7.905759e-07
7.2310371e-07
6.5992131e-07
6.0112538e-07
5.4683103e-07
4.9717171e-07
4.5229549e-07
4.123555e-07
3.7749129e-07
3.4779855e-07
3.2328749e-07
3.0383609e-07
2.8915156e-07
2.7875739e-07
2.7201703e-07
2.6819069e-07
2.6650739e-07
2.662307e-07
2.6670355e-07
2.6736712e-07
2.6776237e-07
2.6752557e-07
2.6638369e-07
2.6413791e-07
2.6059738e-07
2.5535261e-07
2.4707199e-07
2.3303738e-07
2.303497e-07
4.5594857e-07
1.1819895e-06
3.5094187e-06
3.7457433e-06
3.5241998e-06
3.2479634e-06
2.9673663e-06
2.6960248e-06
2.4356732e-06
2.186487e-06
1.9484312e-06
1.7214698e-06
1.5055821e-06
1.30077e-06
1.1070759e-06
9.2461868e-07
7.5366932e-07
5.9482391e-07
4.4944997e-07
3.2101441e-07
2.1947561e-07
1.7123016e-07
1.9792723e-07
2.6665783e-07
3.4519243e-07
4.2192909e-07
4.9297695e-07
5.5685389e-07
6.129463e-07
6.6100702e-07
7.0096467e-07
7.3283643e-07
7.5667578e-07
7.7253875e-07
7.8046906e-07
7.8048517e-07
7.7258769e-07
7.5746553e-07
7.4470681e-07
7.9735408e-07
1.3694051e-06
3.7342029e-06
)
;

boundaryField
{
    left
    {
        type            calculated;
        value           nonuniform List<scalar> 4(4.1735024e-06 1.2421565e-06 1.2419941e-06 4.1732865e-06);
    }
    right
    {
        type            calculated;
        value           nonuniform List<scalar> 4(4.4385903e-06 1.5217195e-06 1.5216495e-06 4.4386132e-06);
    }
    top
    {
        type            calculated;
        value           nonuniform List<scalar> 
40
(
4.3466165e-06
4.9430114e-06
4.6548313e-06
4.2990157e-06
3.9265406e-06
3.5645319e-06
3.2166407e-06
2.8834355e-06
2.5648889e-06
2.2609098e-06
1.9713973e-06
1.6962441e-06
1.4353369e-06
1.1885586e-06
9.5579292e-07
7.3693659e-07
5.3193519e-07
3.4092421e-07
1.6520805e-07
4.3077468e-08
1.6401056e-07
3.0107816e-07
4.272271e-07
5.4138935e-07
6.4348879e-07
7.3362752e-07
8.1196226e-07
8.7867588e-07
9.3396899e-07
9.7804857e-07
1.0111034e-06
1.0332817e-06
1.0446983e-06
1.0454905e-06
1.0361494e-06
1.0198782e-06
1.0219042e-06
1.1586481e-06
2.2722571e-06
4.5085775e-06
)
;
    }
    bottom
    {
        type            calculated;
        value           nonuniform List<scalar> 
40
(
4.3467868e-06
4.943214e-06
4.655048e-06
4.2992409e-06
3.9267693e-06
3.5647619e-06
3.2168705e-06
2.8836641e-06
2.5651151e-06
2.2611327e-06
1.9716158e-06
1.6964574e-06
1.4355441e-06
1.1887589e-06
9.5598539e-07
7.3712059e-07
5.3210993e-07
3.4108874e-07
1.6535872e-07
4.3059155e-08
1.6388106e-07
3.0095599e-07
4.2711504e-07
5.412876e-07
6.4339705e-07
7.3354536e-07
8.1188918e-07
8.7860946e-07
9.3390398e-07
9.7797835e-07
1.0110253e-06
1.0332028e-06
1.0446273e-06
1.0454282e-06
1.0360858e-06
1.0198024e-06
1.0218259e-06
1.1585933e-06
2.2722342e-06
4.5085625e-06
)
;
    }
    frontAndBack
    {
        type            empty;
    }
}


// ************************************************************************* //
