/*--------------------------------*- C++ -*----------------------------------*\
| =========                 |                                                 |
| \\      /  F ield         | OpenFOAM: The Open Source CFD Toolbox           |
|  \\    /   O peration     | Version:  2512                                  |
|   \\  /    A nd           | Website:  www.openfoam.com                      |
|    \\/     M anipulation  |                                                 |
\*---------------------------------------------------------------------------*/
FoamFile
{
    version     2.0;
    format      ascii;
    arch        "LSB;label=32;scalar=64";
    class       volSymmTensorField;
    location    "0.3";
    object      epsilon;
}
// * * * * * * * * * * * * * * * * * * * * * * * * * * * * * * * * * * * * * //

dimensions      [0 0 0 0 0 0 0];

internalField   nonuniform List<symmTensor> 
160
(
(-4.4992152e-06 -1.3377202e-07 1.2924697e-22 1.2828407e-06 1.9387046e-22 0)
(-4.7755594e-06 -2.8283107e-07 5.1698788e-22 1.3842222e-06 -5.1698788e-22 0)
(-4.463644e-06 -2.7753551e-07 0 1.3423061e-06 0 0)
(-4.1108631e-06 -2.7597473e-07 2.0679515e-21 1.2364327e-06 5.1698788e-21 0)
(-3.7532489e-06 -2.6895412e-07 -5.1698788e-21 1.1288415e-06 -2.0679515e-21 0)
(-3.4074042e-06 -2.6106469e-07 -3.1019273e-21 1.0248235e-06 4.1359031e-21 0)
(-3.0753495e-06 -2.5296188e-07 -5.1698788e-21 9.2513686e-07 -8.2718061e-21 0)
(-2.7573378e-06 -2.4483126e-07 0 8.2971414e-07 4.1359031e-21 0)
(-2.4533051e-06 -2.3670475e-07 0 7.3849748e-07 4.1359031e-21 0)
(-2.1631589e-06 -2.2858944e-07 4.1359031e-21 6.5144904e-07 -8.2718061e-21 0)
(-1.8868001e-06 -2.2048749e-07 0 5.68537e-07 -8.2718061e-21 0)
(-1.6241224e-06 -2.1240039e-07 4.1359031e-21 4.8972907e-07 -3.3087225e-20 0)
(-1.3750113e-06 -2.0432922e-07 6.2038546e-21 4.1499081e-07 -8.2718061e-21 0)
(-1.1393443e-06 -1.9627521e-07 0 3.4428542e-07 -4.1359031e-20 0)
(-9.1699058e-07 -1.8823931e-07 -4.1359031e-21 2.7757374e-07 -1.6543612e-20 0)
(-7.0781236e-07 -1.8022264e-07 4.1359031e-21 2.1481438e-07 8.2718061e-20 0)
(-5.1166458e-07 -1.7222604e-07 0 1.5596388e-07 0 0)
(-3.2839583e-07 -1.6425049e-07 4.1359031e-21 1.0097684e-07 1.6543612e-20 0)
(-1.5784873e-07 -1.5629668e-07 4.1359031e-21 4.9806063e-08 -3.3087225e-20 0)
(1.3937067e-10 -1.483654e-07 -2.0679515e-21 2.4027837e-09 0 0)
(1.45736e-07 -1.404572e-07 1.4475661e-20 -4.1283219e-08 0 0)
(2.791128e-07 -1.3257271e-07 -4.1359031e-21 -8.1303439e-08 9.9261674e-20 0)
(4.0044523e-07 -1.2471242e-07 -2.0679515e-21 -1.1771049e-07 0 0)
(5.0991186e-07 -1.1687693e-07 0 -1.5055798e-07 -3.3087225e-20 0)
(6.076942e-07 -1.0906688e-07 -8.2718061e-21 -1.7990039e-07 -3.3087225e-20 0)
(6.9397621e-07 -1.0128316e-07 2.0679515e-21 -2.057931e-07 0 0)
(7.6894487e-07 -9.3527596e-08 -6.2038546e-21 -2.2829241e-07 3.3087225e-20 0)
(8.3279151e-07 -8.5802917e-08 4.1359031e-21 -2.4745603e-07 0 0)
(8.8571338e-07 -7.8112354e-08 8.2718061e-21 -2.633424e-07 -1.323489e-19 0)
(9.2790878e-07 -7.0452513e-08 -4.1359031e-21 -2.7600851e-07 2.646978e-19 0)
(9.5956145e-07 -6.2811365e-08 6.2038546e-21 -2.855063e-07 0 0)
(9.8082409e-07 -5.5175815e-08 -2.0679515e-21 -2.9187716e-07 -6.6174449e-20 0)
(9.9181079e-07 -4.755878e-08 4.1359031e-21 -2.9514213e-07 -3.3087225e-20 0)
(9.9261752e-07 -4.0048768e-08 2.0679515e-21 -2.9525765e-07 6.6174449e-20 0)
(9.8343756e-07 -3.296087e-08 -6.2038546e-21 -2.9195623e-07 3.3087225e-20 0)
(9.6567111e-07 -2.7509862e-08 0 -2.846726e-07 9.9261674e-20 0)
(9.5287038e-07 -2.9999597e-08 -2.0679515e-21 -2.7454981e-07 -9.9261674e-20 0)
(1.0129312e-06 -5.6684454e-08 -2.0679515e-21 -3.0051522e-07 6.6174449e-20 0)
(1.6780041e-06 -2.4371005e-07 4.1359031e-21 -5.5002004e-07 0 0)
(3.2559483e-06 1.070763e-07 0 -3.2082438e-06 0 0)
(-1.7339055e-06 -7.6919449e-07 -2.1002633e-22 2.4432519e-07 -4.2005265e-22 0)
(-1.6307896e-06 -6.7488864e-07 -5.1698788e-22 4.8343439e-07 -5.1698788e-22 0)
(-1.5021846e-06 -6.2818606e-07 -1.4217167e-21 4.5756447e-07 -1.0339758e-21 0)
(-1.3757513e-06 -5.9838848e-07 -5.1698788e-22 4.1716505e-07 0 0)
(-1.2550896e-06 -5.7593633e-07 -1.8094576e-21 3.7936079e-07 -2.0679515e-21 0)
(-1.1395439e-06 -5.5514144e-07 -1.5509636e-21 3.4425147e-07 -2.0679515e-21 0)
(-1.0288115e-06 -5.3473159e-07 -3.1019273e-21 3.1092615e-07 0 0)
(-9.2278436e-07 -5.1444725e-07 -2.5849394e-21 2.7909065e-07 -4.1359031e-21 0)
(-8.2141661e-07 -4.9425322e-07 -2.0679515e-21 2.486672e-07 2.0679515e-20 0)
(-7.2467495e-07 -4.7415235e-07 -3.1019273e-21 2.1963317e-07 1.6543612e-20 0)
(-6.3252636e-07 -4.5415291e-07 -2.5849394e-21 1.9197648e-07 -1.6543612e-20 0)
(-5.4493551e-07 -4.342636e-07 -5.1698788e-21 1.6568617e-07 -8.2718061e-21 0)
(-4.6186438e-07 -4.1449284e-07 -3.1019273e-21 1.4075081e-07 8.2718061e-21 0)
(-3.8327218e-07 -3.9484873e-07 0 1.1715818e-07 -1.6543612e-20 0)
(-3.0911556e-07 -3.7533895e-07 -5.1698788e-21 9.4895327e-08 1.6543612e-20 0)
(-2.3934867e-07 -3.5597075e-07 -5.6868667e-21 7.3948546e-08 4.9630837e-20 0)
(-1.7392334e-07 -3.3675086e-07 -3.1019273e-21 5.4303457e-08 -1.6543612e-20 0)
(-1.1278926e-07 -3.1768552e-07 -1.0339758e-21 3.5945033e-08 6.6174449e-20 0)
(-5.5894159e-08 -2.9878037e-07 -1.0339758e-21 1.8857666e-08 -6.6174449e-20 0)
(-3.1839725e-09 -2.8004051e-07 -4.1359031e-21 3.0252095e-09 1.1580529e-19 0)
(4.5396938e-08 -2.6147049e-07 -4.1359031e-21 -1.1568959e-08 6.6174449e-20 0)
(8.9905643e-08 -2.4307436e-07 -1.0339758e-21 -2.4941897e-08 0 0)
(1.3040041e-07 -2.2485574e-07 -2.0679515e-21 -3.711103e-08 -3.3087225e-20 0)
(1.6694058e-07 -2.0681794e-07 -5.1698788e-21 -4.8094119e-08 -1.6543612e-19 0)
(1.9958639e-07 -1.8896415e-07 -5.1698788e-21 -5.790922e-08 0 0)
(2.2839902e-07 -1.7129793e-07 -5.6868667e-21 -6.6574842e-08 6.6174449e-20 0)
(2.5344076e-07 -1.5382389e-07 -3.6189152e-21 -7.4109958e-08 -6.6174449e-20 0)
(2.7477541e-07 -1.36548e-07 -1.0339758e-21 -8.0534398e-08 0 0)
(2.9246764e-07 -1.19473e-07 -3.1019273e-21 -8.5867544e-08 -3.3087225e-20 0)
(3.0658064e-07 -1.0258854e-07 -3.1019273e-21 -9.0126319e-08 -3.3087225e-20 0)
(3.1717199e-07 -8.5866008e-08 0 -9.3323583e-08 6.6174449e-20 0)
(3.2429134e-07 -6.9271025e-08 0 -9.5466978e-08 -3.3087225e-20 0)
(3.2797825e-07 -5.2789566e-08 -4.1359031e-21 -9.6552375e-08 3.3087225e-20 0)
(3.2824857e-07 -3.6407849e-08 -4.6528909e-21 -9.6500918e-08 0 0)
(3.2499263e-07 -1.9852138e-08 -5.1698788e-21 -9.4846686e-08 -3.3087225e-20 0)
(3.1757122e-07 -1.3511022e-09 -3.1019273e-21 -8.9491465e-08 6.6174449e-20 0)
(3.0344999e-07 2.8160799e-08 5.1698788e-22 -7.3454727e-08 6.6174449e-20 0)
(2.7635943e-07 1.043588e-07 -2.0679515e-21 -3.32005e-08 -6.6174449e-20 0)
(2.3249028e-07 3.6275401e-07 -3.1019273e-21 -6.341825e-08 -1.323489e-19 0)
(3.872629e-07 7.1568302e-07 -4.1359031e-21 -1.0287903e-06 -1.323489e-19 0)
(1.7336241e-06 -7.6917557e-07 -8.0779357e-23 -2.442882e-07 1.2924697e-22 0)
(1.6304898e-06 -6.748788e-07 5.1698788e-22 -4.8334995e-07 -1.0339758e-21 0)
(1.5018793e-06 -6.2817291e-07 -2.5849394e-22 -4.5746723e-07 1.0339758e-21 0)
(1.3754442e-06 -5.9836965e-07 -2.5849394e-21 -4.1706525e-07 5.1698788e-21 0)
(1.2547819e-06 -5.7591186e-07 -2.5849394e-22 -3.7926088e-07 -1.6543612e-20 0)
(1.1392361e-06 -5.5511179e-07 1.0339758e-21 -3.4415186e-07 2.0679515e-21 0)
(1.0285047e-06 -5.346971e-07 0 -3.1082698e-07 4.1359031e-21 0)
(9.2247961e-07 -5.1440815e-07 1.0339758e-21 -2.7899212e-07 4.1359031e-21 0)
(8.2111518e-07 -4.942097e-07 5.1698788e-22 -2.4856958e-07 2.8951321e-20 0)
(7.2437813e-07 -4.7410453e-07 3.1019273e-21 -2.195368e-07 1.6543612e-20 0)
(6.3223543e-07 -4.5410096e-07 1.5509636e-21 -1.9188172e-07 0 0)
(5.4465172e-07 -4.3420766e-07 -5.1698788e-22 -1.6559344e-07 -1.6543612e-20 0)
(4.6158888e-07 -4.1443309e-07 5.1698788e-22 -1.4066052e-07 -1.6543612e-20 0)
(3.8300608e-07 -3.9478533e-07 -1.0339758e-21 -1.1707076e-07 -1.6543612e-20 0)
(3.0885986e-07 -3.7527209e-07 -2.5849394e-21 -9.4811158e-08 9.9261674e-20 0)
(2.3910429e-07 -3.559006e-07 5.1698788e-22 -7.3867996e-08 -1.6543612e-20 0)
(1.7369109e-07 -3.3667765e-07 5.1698788e-22 -5.4226852e-08 -4.9630837e-20 0)
(1.1256989e-07 -3.1760943e-07 0 -3.5872659e-08 3.3087225e-20 0)
(5.5688287e-08 -2.9870164e-07 -4.1359031e-21 -1.8789762e-08 -3.3087225e-20 0)
(2.9921484e-09 -2.7995935e-07 -2.0679515e-21 -2.9619649e-09 1.323489e-19 0)
(-4.557432e-08 -2.6138714e-07 -3.1019273e-21 1.1627415e-08 -1.6543612e-20 0)
(-9.0068306e-08 -2.4298904e-07 1.0339758e-21 2.4995498e-08 -3.3087225e-20 0)
(-1.3054835e-07 -2.2476871e-07 5.1698788e-22 3.7159797e-08 -9.9261674e-20 0)
(-1.6707412e-07 -2.0672941e-07 1.0339758e-21 4.8138225e-08 -9.9261674e-20 0)
(-1.9970641e-07 -1.8887432e-07 0 5.7949004e-08 -6.6174449e-20 0)
(-2.28507e-07 -1.7120699e-07 5.1698788e-22 6.6610637e-08 6.6174449e-20 0)
(-2.5353859e-07 -1.5373227e-07 -5.1698788e-22 7.4141314e-08 0 0)
(-2.7486476e-07 -1.3645663e-07 -5.1698788e-22 8.0558553e-08 0 0)
(-2.9254994e-07 -1.1938258e-07 1.0339758e-21 8.5880034e-08 -9.9261674e-20 0)
(-3.0665808e-07 -1.0249894e-07 5.1698788e-22 9.0125416e-08 3.3087225e-20 0)
(-3.1724956e-07 -8.5775365e-08 0 9.3316958e-08 -1.6543612e-19 0)
(-3.2437623e-07 -6.9177664e-08 0 9.5472541e-08 -1.6543612e-19 0)
(-3.2807605e-07 -5.2695449e-08 0 9.6584376e-08 0 0)
(-3.2835513e-07 -3.6317584e-08 0 9.6552205e-08 0 0)
(-3.2509476e-07 -1.9768342e-08 1.0339758e-21 9.488966e-08 0 0)
(-3.1765457e-07 -1.2722587e-09 -2.5849394e-21 8.9501332e-08 0 0)
(-3.0350764e-07 2.8238712e-08 0 7.3433886e-08 -3.3087225e-20 0)
(-2.7639984e-07 1.0443613e-07 5.1698788e-22 3.3173492e-08 0 0)
(-2.3251946e-07 3.6282453e-07 0 6.3397139e-08 6.6174449e-20 0)
(-3.8726519e-07 7.1572975e-07 -5.1698788e-22 1.0287361e-06 1.323489e-19 0)
(4.4989667e-06 -1.3376213e-07 9.0472879e-22 -1.2827739e-06 -3.2311743e-22 0)
(4.7752844e-06 -2.8282305e-07 2.5849394e-21 -1.3841427e-06 -1.5509636e-21 0)
(4.4633571e-06 -2.7752351e-07 4.1359031e-21 -1.3422183e-06 -2.0679515e-21 0)
(4.1105695e-06 -2.7595622e-07 0 -1.236342e-06 -2.0679515e-21 0)
(3.7529523e-06 -2.6892973e-07 -2.0679515e-21 -1.1287498e-06 -8.2718061e-21 0)
(3.4071066e-06 -2.6103504e-07 7.2378304e-21 -1.0247316e-06 2.0679515e-21 0)
(3.0750523e-06 -2.5292739e-07 2.0679515e-21 -9.2504506e-07 0 0)
(2.7570424e-06 -2.4479216e-07 8.2718061e-21 -8.2962286e-07 1.2407709e-20 0)
(2.4530127e-06 -2.3666122e-07 1.0339758e-20 -7.3840709e-07 2.0679515e-20 0)
(2.1628709e-06 -2.2854161e-07 8.2718061e-21 -6.5135991e-07 8.2718061e-21 0)
(1.8865177e-06 -2.2043554e-07 1.0339758e-20 -5.6844951e-07 2.4815418e-20 0)
(1.6238468e-06 -2.1234443e-07 -6.2038546e-21 -4.8964357e-07 -5.7902643e-20 0)
(1.3747437e-06 -2.0426947e-07 -2.0679515e-21 -4.1490767e-07 -1.6543612e-20 0)
(1.1390856e-06 -1.9621179e-07 0 -3.4420498e-07 -4.1359031e-20 0)
(9.1674198e-07 -1.8817245e-07 -2.0679515e-21 -2.7749634e-07 6.6174449e-20 0)
(7.0757464e-07 -1.8015248e-07 2.0679515e-21 -2.1474032e-07 1.6543612e-20 0)
(5.1143856e-07 -1.7215283e-07 1.4475661e-20 -1.5589343e-07 4.9630837e-20 0)
(3.2818221e-07 -1.6417439e-07 8.2718061e-21 -1.0091023e-07 6.6174449e-20 0)
(1.5764814e-07 -1.5621795e-07 6.2038546e-21 -4.9743516e-08 -1.6543612e-20 0)
(-3.2645048e-10 -1.4828423e-07 -4.1359031e-21 -2.3444559e-09 -1.6543612e-20 0)
(-1.4590915e-07 -1.4037385e-07 1.0339758e-20 4.1337209e-08 1.8197973e-19 0)
(-2.7927182e-07 -1.3248739e-07 1.4475661e-20 8.1353032e-08 3.3087225e-20 0)
(-4.0059011e-07 -1.246254e-07 1.4475661e-20 1.177557e-07 -6.6174449e-20 0)
(-5.1004295e-07 -1.1678839e-07 -6.2038546e-21 1.5059892e-07 -6.6174449e-20 0)
(-6.0781218e-07 -1.0897704e-07 8.2718061e-21 1.7993727e-07 6.6174449e-20 0)
(-6.9408207e-07 -1.0119209e-07 1.0339758e-20 2.0582614e-07 -3.3087225e-20 0)
(-7.6903987e-07 -9.3435709e-08 0 2.2832155e-07 6.6174449e-20 0)
(-8.3287816e-07 -8.5711575e-08 0 2.4748048e-07 -3.3087225e-20 0)
(-8.8579608e-07 -7.8022457e-08 -4.1359031e-21 2.6336132e-07 3.3087225e-20 0)
(-9.2799319e-07 -7.0363988e-08 0 2.76023e-07 0 0)
(-9.5965153e-07 -6.2721201e-08 8.2718061e-21 2.8552114e-07 6.6174449e-20 0)
(-9.8091786e-07 -5.5081076e-08 1.6543612e-20 2.9189943e-07 0 0)
(-9.9190477e-07 -4.746235e-08 2.0679515e-21 2.9517501e-07 -6.6174449e-20 0)
(-9.9270915e-07 -3.9957564e-08 4.1359031e-21 2.9529565e-07 -1.323489e-19 0)
(-9.8352836e-07 -3.2878723e-08 1.2407709e-20 2.9198791e-07 6.6174449e-20 0)
(-9.6576286e-07 -2.7434015e-08 8.2718061e-21 2.8468958e-07 3.3087225e-20 0)
(-9.5295329e-07 -2.9922215e-08 1.0339758e-20 2.7455433e-07 -6.6174449e-20 0)
(-1.0129899e-06 -5.6604404e-08 2.0679515e-21 3.0051617e-07 9.9261674e-20 0)
(-1.6780353e-06 -2.4363702e-07 6.2038546e-21 5.5002148e-07 -9.9261674e-20 0)
(-3.2559623e-06 1.0711809e-07 5.1698788e-21 3.208259e-06 -9.9261674e-20 0)
)
;

boundaryField
{
    left
    {
        type            calculated;
        value           nonuniform List<symmTensor> 4((-5.5406574e-06 -3.9794526e-07 0 1.1909249e-06 0 0) (-1.5518177e-06 -5.9540059e-07 0 0 0 0) (1.5515555e-06 -5.9537422e-07 0 0 0 0) (5.5403743e-06 -3.9790305e-07 0 -1.1908644e-06 0 0));
    }
    right
    {
        type            calculated;
        value           nonuniform List<symmTensor> 4((1.6922305e-06 2.5315333e-08 0 -5.6483273e-06 0 0) (5.7994548e-07 3.7877649e-08 0 -1.9356982e-06 0 0) (-5.7991871e-07 3.787738e-08 0 1.9356091e-06 0 0) (-1.6922392e-06 2.5315036e-08 0 5.6483563e-06 0 0));
    }
    top
    {
        type            calculated;
        value           nonuniform List<symmTensor> 
40
(
(5.5305441e-06 -1.8741437e-09 0 -1.6584392e-06 0 0)
(6.2894355e-06 -3.5916077e-09 0 -1.8859159e-06 0 0)
(5.9227993e-06 -5.7306446e-09 0 -1.7759003e-06 0 0)
(5.4700939e-06 -7.9748722e-09 0 -1.6400896e-06 0 0)
(4.9961842e-06 -1.0212724e-08 0 -1.4979268e-06 0 0)
(4.5355845e-06 -1.2422786e-08 0 -1.3597606e-06 0 0)
(4.0929394e-06 -1.4596481e-08 0 -1.2269835e-06 0 0)
(3.6689708e-06 -1.6727448e-08 0 -1.099812e-06 0 0)
(3.2636422e-06 -1.8809647e-08 0 -9.782349e-07 0 0)
(2.8768349e-06 -2.0837227e-08 0 -8.6221665e-07 0 0)
(2.508417e-06 -2.2804545e-08 0 -7.5171748e-07 0 0)
(2.1582463e-06 -2.4706198e-08 0 -6.4669469e-07 0 0)
(1.82617e-06 -2.6537042e-08 0 -5.471023e-07 0 0)
(1.5120242e-06 -2.8292205e-08 0 -4.5289105e-07 0 0)
(1.2156347e-06 -2.9967105e-08 0 -3.640085e-07 0 0)
(9.3681689e-07 -3.1557462e-08 0 -2.8039923e-07 0 0)
(6.7537729e-07 -3.3059303e-08 0 -2.02005e-07 0 0)
(4.3111354e-07 -3.4468972e-08 0 -1.2876499e-07 0 0)
(2.0381547e-07 -3.5783138e-08 0 -6.0616014e-08 0 0)
(-6.7342804e-09 -3.6998793e-08 0 2.5072725e-09 0 0)
(-2.007594e-07 -3.8113256e-08 0 6.067211e-08 0 0)
(-3.7848927e-07 -3.9124174e-08 0 1.1394745e-07 0 0)
(-5.4015827e-07 -4.0029513e-08 0 1.6240374e-07 0 0)
(-6.8600508e-07 -4.0827561e-08 0 2.0611271e-07 0 0)
(-8.162721e-07 -4.1516916e-08 0 2.4514722e-07 0 0)
(-9.3120462e-07 -4.209648e-08 0 2.7958097e-07 0 0)
(-1.031052e-06 -4.2565448e-08 0 3.0948889e-07 0 0)
(-1.1160718e-06 -4.2923304e-08 0 3.3494841e-07 0 0)
(-1.1865333e-06 -4.3169837e-08 0 3.5604037e-07 0 0)
(-1.242708e-06 -4.3305175e-08 0 3.7284639e-07 0 0)
(-1.2848412e-06 -4.3329773e-08 0 3.8544016e-07 0 0)
(-1.3131246e-06 -4.3244307e-08 0 3.9387926e-07 0 0)
(-1.3277065e-06 -4.304955e-08 0 3.9820826e-07 0 0)
(-1.3287626e-06 -4.2746481e-08 0 3.9847994e-07 0 0)
(-1.316919e-06 -4.2336644e-08 0 3.9488214e-07 0 0)
(-1.2962564e-06 -4.1819965e-08 0 3.886377e-07 0 0)
(-1.2989159e-06 -4.1172215e-08 0 3.8937613e-07 0 0)
(-1.4731967e-06 -4.0150941e-08 0 4.4152707e-07 0 0)
(-2.8910441e-06 -3.7630748e-08 0 8.6623961e-07 0 0)
(-5.7373922e-06 -2.5065497e-08 0 1.7189203e-06 0 0)
)
;
    }
    bottom
    {
        type            calculated;
        value           nonuniform List<symmTensor> 
40
(
(-5.5307606e-06 -1.873921e-09 0 1.6585042e-06 0 0)
(-6.2896933e-06 -3.5915226e-09 0 1.8859933e-06 0 0)
(-5.9230749e-06 -5.730624e-09 0 1.7759831e-06 0 0)
(-5.4703802e-06 -7.9748694e-09 0 1.6401757e-06 0 0)
(-4.9964751e-06 -1.0212726e-08 0 1.4980143e-06 0 0)
(-4.535877e-06 -1.242279e-08 0 1.3598485e-06 0 0)
(-4.0932316e-06 -1.4596487e-08 0 1.2270714e-06 0 0)
(-3.6692615e-06 -1.6727455e-08 0 1.0998993e-06 0 0)
(-3.2639299e-06 -1.8809657e-08 0 9.7832137e-07 0 0)
(-2.8771185e-06 -2.0837238e-08 0 8.6230185e-07 0 0)
(-2.508695e-06 -2.2804559e-08 0 7.5180103e-07 0 0)
(-2.1585177e-06 -2.4706214e-08 0 6.4677624e-07 0 0)
(-1.8264336e-06 -2.6537059e-08 0 5.471815e-07 0 0)
(-1.512279e-06 -2.8292224e-08 0 4.529676e-07 0 0)
(-1.2158796e-06 -2.9967127e-08 0 3.6408211e-07 0 0)
(-9.3705121e-07 -3.1557485e-08 0 2.8046964e-07 0 0)
(-6.7560013e-07 -3.3059327e-08 0 2.0207195e-07 0 0)
(-4.3132424e-07 -3.4468997e-08 0 1.288283e-07 0 0)
(-2.0401338e-07 -3.5783163e-08 0 6.0675476e-08 0 0)
(6.5496037e-09 -3.6998818e-08 0 -2.4517892e-09 0 0)
(2.0058838e-07 -3.8113282e-08 0 -6.0620734e-08 0 0)
(3.7833207e-07 -3.9124199e-08 0 -1.1390023e-07 0 0)
(5.4001489e-07 -4.0029538e-08 0 -1.6236067e-07 0 0)
(6.8587515e-07 -4.0827584e-08 0 -2.0607369e-07 0 0)
(8.1615508e-07 -4.1516936e-08 0 -2.4511207e-07 0 0)
(9.3109988e-07 -4.2096499e-08 0 -2.7954951e-07 0 0)
(1.0309588e-06 -4.2565469e-08 0 -3.0946092e-07 0 0)
(1.1159872e-06 -4.2923336e-08 0 -3.3492299e-07 0 0)
(1.1864505e-06 -4.3169879e-08 0 -3.5601551e-07 0 0)
(1.2426185e-06 -4.3305209e-08 0 -3.7281953e-07 0 0)
(1.2847417e-06 -4.332976e-08 0 -3.8541029e-07 0 0)
(1.3130242e-06 -4.3244229e-08 0 -3.9384911e-07 0 0)
(1.327616e-06 -4.3049456e-08 0 -3.9818109e-07 0 0)
(1.3286833e-06 -4.2746456e-08 0 -3.9845613e-07 0 0)
(1.316838e-06 -4.2336722e-08 0 -3.9485782e-07 0 0)
(1.2961599e-06 -4.1820085e-08 0 -3.886087e-07 0 0)
(1.2988162e-06 -4.1172272e-08 0 -3.8934617e-07 0 0)
(1.4731269e-06 -4.0150916e-08 0 -4.4150612e-07 0 0)
(2.8910151e-06 -3.763074e-08 0 -8.6623089e-07 0 0)
(5.7373731e-06 -2.5065591e-08 0 -1.7189146e-06 0 0)
)
;
    }
    frontAndBack
    {
        type            empty;
    }
}


// ************************************************************************* //
