/*--------------------------------*- C++ -*----------------------------------*\
| =========                 |                                                 |
| \\      /  F ield         | OpenFOAM: The Open Source CFD Toolbox           |
|  \\    /   O peration     | Version:  2512                                  |
|   \\  /    A nd           | Website:  www.openfoam.com                      |
|    \\/     M anipulation  |                                                 |
\*---------------------------------------------------------------------------*/
FoamFile
{
    version     2.0;
    format      ascii;
    arch        "LSB;label=32;scalar=64";
    class       pointVectorField;
    location    "0.3";
    object      pointD;
}
// * * * * * * * * * * * * * * * * * * * * * * * * * * * * * * * * * * * * * //

dimensions      [0 1 0 0 0 0 0];

internalField   nonuniform List<vector> 
410
(
(-5.7732623e-08 -2.9773123e-08 0)
(-1.9600164e-07 -1.2228088e-07 0)
(-3.5324397e-07 -2.8382231e-07 0)
(-5.0132084e-07 -5.179169e-07 0)
(-6.3808035e-07 -8.223294e-07 0)
(-7.6299223e-07 -1.1914943e-06 0)
(-8.7638915e-07 -1.6196117e-06 0)
(-9.7871994e-07 -2.1010365e-06 0)
(-1.0704515e-06 -2.6303529e-06 0)
(-1.1520497e-06 -3.2023789e-06 0)
(-1.2239777e-06 -3.8121657e-06 0)
(-1.2866951e-06 -4.4549953e-06 0)
(-1.340658e-06 -5.1263788e-06 0)
(-1.3863188e-06 -5.8220549e-06 0)
(-1.4241258e-06 -6.5379874e-06 0)
(-1.4545228e-06 -7.2703633e-06 0)
(-1.4779491e-06 -8.0155908e-06 0)
(-1.4948391e-06 -8.7702963e-06 0)
(-1.5056222e-06 -9.5313227e-06 0)
(-1.5107225e-06 -1.0295726e-05 0)
(-1.5105588e-06 -1.1060774e-05 0)
(-1.5055441e-06 -1.182394e-05 0)
(-1.4960858e-06 -1.2582907e-05 0)
(-1.4825854e-06 -1.3335555e-05 0)
(-1.4654385e-06 -1.4079967e-05 0)
(-1.4450347e-06 -1.4814422e-05 0)
(-1.4217572e-06 -1.553739e-05 0)
(-1.3959832e-06 -1.6247535e-05 0)
(-1.3680835e-06 -1.6943704e-05 0)
(-1.3384223e-06 -1.7624931e-05 0)
(-1.3073568e-06 -1.8290429e-05 0)
(-1.2752382e-06 -1.8939587e-05 0)
(-1.2424126e-06 -1.9571967e-05 0)
(-1.2092222e-06 -2.0187306e-05 0)
(-1.1760052e-06 -2.0785512e-05 0)
(-1.1430842e-06 -2.1366672e-05 0)
(-1.1106802e-06 -2.1931017e-05 0)
(-1.0782098e-06 -2.2478592e-05 0)
(-1.0413816e-06 -2.3006428e-05 0)
(-9.6910625e-07 -2.3497117e-05 0)
(-8.2567193e-07 -2.3822357e-05 0)
(0 0 0)
(-8.6691747e-08 -8.7911963e-08 0)
(-1.6822739e-07 -2.4898011e-07 0)
(-2.4333271e-07 -4.8564379e-07 0)
(-3.1211636e-07 -7.9278088e-07 0)
(-3.7486693e-07 -1.1646007e-06 0)
(-4.3184021e-07 -1.595264e-06 0)
(-4.8327689e-07 -2.0791273e-06 0)
(-5.2941224e-07 -2.6107764e-06 0)
(-5.7047925e-07 -3.1850305e-06 0)
(-6.0670924e-07 -3.7969416e-06 0)
(-6.3833186e-07 -4.4417925e-06 0)
(-6.6557504e-07 -5.1150951e-06 0)
(-6.8866477e-07 -5.812589e-06 0)
(-7.0782501e-07 -6.530239e-06 0)
(-7.2327755e-07 -7.264233e-06 0)
(-7.3524188e-07 -8.0109803e-06 0)
(-7.4393511e-07 -8.7671086e-06 0)
(-7.4957179e-07 -9.5294616e-06 0)
(-7.523639e-07 -1.0295097e-05 0)
(-7.5252067e-07 -1.1061283e-05 0)
(-7.5024858e-07 -1.1825495e-05 0)
(-7.4575124e-07 -1.2585417e-05 0)
(-7.3922935e-07 -1.333893e-05 0)
(-7.3088064e-07 -1.408412e-05 0)
(-7.208998e-07 -1.4819264e-05 0)
(-7.0947849e-07 -1.5542838e-05 0)
(-6.9680522e-07 -1.6253502e-05 0)
(-6.8306532e-07 -1.695011e-05 0)
(-6.6844091e-07 -1.7631693e-05 0)
(-6.5311094e-07 -1.8297468e-05 0)
(-6.3725141e-07 -1.8946824e-05 0)
(-6.2103581e-07 -1.9579325e-05 0)
(-6.0463567e-07 -2.0194706e-05 0)
(-5.8822188e-07 -2.0792874e-05 0)
(-5.7197095e-07 -2.1373907e-05 0)
(-5.5609139e-07 -2.1938015e-05 0)
(-5.4091828e-07 -2.248532e-05 0)
(-5.2709989e-07 -2.3014725e-05 0)
(-5.1547506e-07 -2.3516321e-05 0)
(-4.9611197e-07 -2.3963565e-05 0)
(0 0 0)
(-3.5285263e-12 -7.5695704e-08 0)
(-7.370508e-12 -2.3702465e-07 0)
(-1.1277628e-11 -4.7472103e-07 0)
(-1.5193414e-11 -7.8284539e-07 0)
(-1.91085e-11 -1.1555682e-06 0)
(-2.3017879e-11 -1.587084e-06 0)
(-2.6912573e-11 -2.071761e-06 0)
(-3.0779157e-11 -2.6041882e-06 0)
(-3.4602679e-11 -3.1791854e-06 0)
(-3.8366691e-11 -3.7918051e-06 0)
(-4.2055482e-11 -4.4373302e-06 0)
(-4.5652991e-11 -5.1112731e-06 0)
(-4.914483e-11 -5.8093735e-06 0)
(-5.2516677e-11 -6.5275966e-06 0)
(-5.5756307e-11 -7.2621307e-06 0)
(-5.8851636e-11 -8.0093853e-06 0)
(-6.1792813e-11 -8.7659885e-06 0)
(-6.457006e-11 -9.5287845e-06 0)
(-6.7175889e-11 -1.0294831e-05 0)
(-6.9602954e-11 -1.1061397e-05 0)
(-7.1846498e-11 -1.1825959e-05 0)
(-7.3902636e-11 -1.25862e-05 0)
(-7.5771437e-11 -1.3340003e-05 0)
(-7.7456919e-11 -1.4085452e-05 0)
(-7.8970877e-11 -1.4820827e-05 0)
(-8.0332954e-11 -1.5544603e-05 0)
(-8.156801e-11 -1.6255442e-05 0)
(-8.269352e-11 -1.6952196e-05 0)
(-8.3718763e-11 -1.76339e-05 0)
(-8.4662842e-11 -1.8299768e-05 0)
(-8.5593457e-11 -1.894919e-05 0)
(-8.6626353e-11 -1.9581731e-05 0)
(-8.7852821e-11 -2.0197126e-05 0)
(-8.9216942e-11 -2.0795279e-05 0)
(-9.051232e-11 -2.1376245e-05 0)
(-9.1509048e-11 -2.1940152e-05 0)
(-9.2124317e-11 -2.2486857e-05 0)
(-9.2540775e-11 -2.3014849e-05 0)
(-9.2852254e-11 -2.3519368e-05 0)
(-9.2798099e-11 -2.4011957e-05 0)
(0 0 0)
(8.6684732e-08 -8.7910114e-08 0)
(1.6821306e-07 -2.4897774e-07 0)
(2.4331094e-07 -4.856413e-07 0)
(3.1208706e-07 -7.9277838e-07 0)
(3.7483007e-07 -1.1645982e-06 0)
(4.3179579e-07 -1.5952615e-06 0)
(4.8322492e-07 -2.0791249e-06 0)
(5.2935276e-07 -2.6107739e-06 0)
(5.7041235e-07 -3.1850281e-06 0)
(6.0663502e-07 -3.7969393e-06 0)
(6.3825048e-07 -4.4417901e-06 0)
(6.6548666e-07 -5.1150929e-06 0)
(6.885696e-07 -5.8125868e-06 0)
(7.0772327e-07 -6.5302368e-06 0)
(7.2316951e-07 -7.264231e-06 0)
(7.3512782e-07 -8.0109784e-06 0)
(7.4381531e-07 -8.7671067e-06 0)
(7.4944658e-07 -9.5294599e-06 0)
(7.522336e-07 -1.0295095e-05 0)
(7.5238564e-07 -1.1061281e-05 0)
(7.5010917e-07 -1.1825494e-05 0)
(7.4560781e-07 -1.2585415e-05 0)
(7.3908226e-07 -1.3338929e-05 0)
(7.3073024e-07 -1.4084118e-05 0)
(7.2074643e-07 -1.4819263e-05 0)
(7.0932244e-07 -1.5542837e-05 0)
(6.9664675e-07 -1.6253502e-05 0)
(6.8290464e-07 -1.6950109e-05 0)
(6.6827816e-07 -1.7631693e-05 0)
(6.529462e-07 -1.8297468e-05 0)
(6.3708466e-07 -1.8946824e-05 0)
(6.2086688e-07 -1.9579324e-05 0)
(6.044643e-07 -2.0194704e-05 0)
(5.8804791e-07 -2.0792873e-05 0)
(5.7179447e-07 -2.1373906e-05 0)
(5.5591274e-07 -2.1938015e-05 0)
(5.4073797e-07 -2.2485321e-05 0)
(5.2691839e-07 -2.3014726e-05 0)
(5.1529273e-07 -2.3516321e-05 0)
(4.9592942e-07 -2.3963567e-05 0)
(5.7730309e-08 -2.977161e-08 0)
(1.9599391e-07 -1.222772e-07 0)
(3.532298e-07 -2.8381779e-07 0)
(5.0129978e-07 -5.1791216e-07 0)
(6.3805213e-07 -8.2232462e-07 0)
(7.6295674e-07 -1.1914895e-06 0)
(8.7634635e-07 -1.6196069e-06 0)
(9.7866983e-07 -2.1010318e-06 0)
(1.0703941e-06 -2.6303482e-06 0)
(1.1519852e-06 -3.2023743e-06 0)
(1.223906e-06 -3.8121611e-06 0)
(1.2866165e-06 -4.4549908e-06 0)
(1.3405726e-06 -5.1263744e-06 0)
(1.3862269e-06 -5.8220506e-06 0)
(1.4240275e-06 -6.5379833e-06 0)
(1.4544183e-06 -7.2703594e-06 0)
(1.4778388e-06 -8.015587e-06 0)
(1.4947232e-06 -8.7702928e-06 0)
(1.505501e-06 -9.5313194e-06 0)
(1.5105964e-06 -1.0295723e-05 0)
(1.5104281e-06 -1.1060771e-05 0)
(1.5054091e-06 -1.1823938e-05 0)
(1.4959468e-06 -1.2582904e-05 0)
(1.4824429e-06 -1.3335553e-05 0)
(1.4652928e-06 -1.4079965e-05 0)
(1.444886e-06 -1.481442e-05 0)
(1.4216058e-06 -1.5537389e-05 0)
(1.3958295e-06 -1.6247533e-05 0)
(1.3679277e-06 -1.6943703e-05 0)
(1.3382644e-06 -1.7624931e-05 0)
(1.3071967e-06 -1.8290429e-05 0)
(1.2750757e-06 -1.8939587e-05 0)
(1.2422476e-06 -1.9571966e-05 0)
(1.2090549e-06 -2.0187304e-05 0)
(1.1758358e-06 -2.0785509e-05 0)
(1.1429129e-06 -2.136667e-05 0)
(1.1105065e-06 -2.1931017e-05 0)
(1.0780336e-06 -2.2478592e-05 0)
(1.0412036e-06 -2.3006429e-05 0)
(9.6892754e-07 -2.3497117e-05 0)
(8.2549273e-07 -2.3822358e-05 0)
(-5.7732623e-08 -2.9773123e-08 0)
(-1.9600164e-07 -1.2228088e-07 0)
(-3.5324397e-07 -2.8382231e-07 0)
(-5.0132084e-07 -5.179169e-07 0)
(-6.3808035e-07 -8.223294e-07 0)
(-7.6299223e-07 -1.1914943e-06 0)
(-8.7638915e-07 -1.6196117e-06 0)
(-9.7871994e-07 -2.1010365e-06 0)
(-1.0704515e-06 -2.6303529e-06 0)
(-1.1520497e-06 -3.2023789e-06 0)
(-1.2239777e-06 -3.8121657e-06 0)
(-1.2866951e-06 -4.4549953e-06 0)
(-1.340658e-06 -5.1263788e-06 0)
(-1.3863188e-06 -5.8220549e-06 0)
(-1.4241258e-06 -6.5379874e-06 0)
(-1.4545228e-06 -7.2703633e-06 0)
(-1.4779491e-06 -8.0155908e-06 0)
(-1.4948391e-06 -8.7702963e-06 0)
(-1.5056222e-06 -9.5313227e-06 0)
(-1.5107225e-06 -1.0295726e-05 0)
(-1.5105588e-06 -1.1060774e-05 0)
(-1.5055441e-06 -1.182394e-05 0)
(-1.4960858e-06 -1.2582907e-05 0)
(-1.4825854e-06 -1.3335555e-05 0)
(-1.4654385e-06 -1.4079967e-05 0)
(-1.4450347e-06 -1.4814422e-05 0)
(-1.4217572e-06 -1.553739e-05 0)
(-1.3959832e-06 -1.6247535e-05 0)
(-1.3680835e-06 -1.6943704e-05 0)
(-1.3384223e-06 -1.7624931e-05 0)
(-1.3073568e-06 -1.8290429e-05 0)
(-1.2752382e-06 -1.8939587e-05 0)
(-1.2424126e-06 -1.9571967e-05 0)
(-1.2092222e-06 -2.0187306e-05 0)
(-1.1760052e-06 -2.0785512e-05 0)
(-1.1430842e-06 -2.1366672e-05 0)
(-1.1106802e-06 -2.1931017e-05 0)
(-1.0782098e-06 -2.2478592e-05 0)
(-1.0413816e-06 -2.3006428e-05 0)
(-9.6910625e-07 -2.3497117e-05 0)
(-8.2567193e-07 -2.3822357e-05 0)
(0 0 0)
(-8.6691747e-08 -8.7911963e-08 0)
(-1.6822739e-07 -2.4898011e-07 0)
(-2.4333271e-07 -4.8564379e-07 0)
(-3.1211636e-07 -7.9278088e-07 0)
(-3.7486693e-07 -1.1646007e-06 0)
(-4.3184021e-07 -1.595264e-06 0)
(-4.8327689e-07 -2.0791273e-06 0)
(-5.2941224e-07 -2.6107764e-06 0)
(-5.7047925e-07 -3.1850305e-06 0)
(-6.0670924e-07 -3.7969416e-06 0)
(-6.3833186e-07 -4.4417925e-06 0)
(-6.6557504e-07 -5.1150951e-06 0)
(-6.8866477e-07 -5.812589e-06 0)
(-7.0782501e-07 -6.530239e-06 0)
(-7.2327755e-07 -7.264233e-06 0)
(-7.3524188e-07 -8.0109803e-06 0)
(-7.4393511e-07 -8.7671086e-06 0)
(-7.4957179e-07 -9.5294616e-06 0)
(-7.523639e-07 -1.0295097e-05 0)
(-7.5252067e-07 -1.1061283e-05 0)
(-7.5024858e-07 -1.1825495e-05 0)
(-7.4575124e-07 -1.2585417e-05 0)
(-7.3922935e-07 -1.333893e-05 0)
(-7.3088064e-07 -1.408412e-05 0)
(-7.208998e-07 -1.4819264e-05 0)
(-7.0947849e-07 -1.5542838e-05 0)
(-6.9680522e-07 -1.6253502e-05 0)
(-6.8306532e-07 -1.695011e-05 0)
(-6.6844091e-07 -1.7631693e-05 0)
(-6.5311094e-07 -1.8297468e-05 0)
(-6.3725141e-07 -1.8946824e-05 0)
(-6.2103581e-07 -1.9579325e-05 0)
(-6.0463567e-07 -2.0194706e-05 0)
(-5.8822188e-07 -2.0792874e-05 0)
(-5.7197095e-07 -2.1373907e-05 0)
(-5.5609139e-07 -2.1938015e-05 0)
(-5.4091828e-07 -2.248532e-05 0)
(-5.2709989e-07 -2.3014725e-05 0)
(-5.1547506e-07 -2.3516321e-05 0)
(-4.9611197e-07 -2.3963565e-05 0)
(0 0 0)
(-3.5285263e-12 -7.5695704e-08 0)
(-7.370508e-12 -2.3702465e-07 0)
(-1.1277628e-11 -4.7472103e-07 0)
(-1.5193414e-11 -7.8284539e-07 0)
(-1.91085e-11 -1.1555682e-06 0)
(-2.3017879e-11 -1.587084e-06 0)
(-2.6912573e-11 -2.071761e-06 0)
(-3.0779157e-11 -2.6041882e-06 0)
(-3.4602679e-11 -3.1791854e-06 0)
(-3.8366691e-11 -3.7918051e-06 0)
(-4.2055482e-11 -4.4373302e-06 0)
(-4.5652991e-11 -5.1112731e-06 0)
(-4.914483e-11 -5.8093735e-06 0)
(-5.2516677e-11 -6.5275966e-06 0)
(-5.5756307e-11 -7.2621307e-06 0)
(-5.8851636e-11 -8.0093853e-06 0)
(-6.1792813e-11 -8.7659885e-06 0)
(-6.457006e-11 -9.5287845e-06 0)
(-6.7175889e-11 -1.0294831e-05 0)
(-6.9602954e-11 -1.1061397e-05 0)
(-7.1846498e-11 -1.1825959e-05 0)
(-7.3902636e-11 -1.25862e-05 0)
(-7.5771437e-11 -1.3340003e-05 0)
(-7.7456919e-11 -1.4085452e-05 0)
(-7.8970877e-11 -1.4820827e-05 0)
(-8.0332954e-11 -1.5544603e-05 0)
(-8.156801e-11 -1.6255442e-05 0)
(-8.269352e-11 -1.6952196e-05 0)
(-8.3718763e-11 -1.76339e-05 0)
(-8.4662842e-11 -1.8299768e-05 0)
(-8.5593457e-11 -1.894919e-05 0)
(-8.6626353e-11 -1.9581731e-05 0)
(-8.7852821e-11 -2.0197126e-05 0)
(-8.9216942e-11 -2.0795279e-05 0)
(-9.051232e-11 -2.1376245e-05 0)
(-9.1509048e-11 -2.1940152e-05 0)
(-9.2124317e-11 -2.2486857e-05 0)
(-9.2540775e-11 -2.3014849e-05 0)
(-9.2852254e-11 -2.3519368e-05 0)
(-9.2798099e-11 -2.4011957e-05 0)
(0 0 0)
(8.6684732e-08 -8.7910114e-08 0)
(1.6821306e-07 -2.4897774e-07 0)
(2.4331094e-07 -4.856413e-07 0)
(3.1208706e-07 -7.9277838e-07 0)
(3.7483007e-07 -1.1645982e-06 0)
(4.3179579e-07 -1.5952615e-06 0)
(4.8322492e-07 -2.0791249e-06 0)
(5.2935276e-07 -2.6107739e-06 0)
(5.7041235e-07 -3.1850281e-06 0)
(6.0663502e-07 -3.7969393e-06 0)
(6.3825048e-07 -4.4417901e-06 0)
(6.6548666e-07 -5.1150929e-06 0)
(6.885696e-07 -5.8125868e-06 0)
(7.0772327e-07 -6.5302368e-06 0)
(7.2316951e-07 -7.264231e-06 0)
(7.3512782e-07 -8.0109784e-06 0)
(7.4381531e-07 -8.7671067e-06 0)
(7.4944658e-07 -9.5294599e-06 0)
(7.522336e-07 -1.0295095e-05 0)
(7.5238564e-07 -1.1061281e-05 0)
(7.5010917e-07 -1.1825494e-05 0)
(7.4560781e-07 -1.2585415e-05 0)
(7.3908226e-07 -1.3338929e-05 0)
(7.3073024e-07 -1.4084118e-05 0)
(7.2074643e-07 -1.4819263e-05 0)
(7.0932244e-07 -1.5542837e-05 0)
(6.9664675e-07 -1.6253502e-05 0)
(6.8290464e-07 -1.6950109e-05 0)
(6.6827816e-07 -1.7631693e-05 0)
(6.529462e-07 -1.8297468e-05 0)
(6.3708466e-07 -1.8946824e-05 0)
(6.2086688e-07 -1.9579324e-05 0)
(6.044643e-07 -2.0194704e-05 0)
(5.8804791e-07 -2.0792873e-05 0)
(5.7179447e-07 -2.1373906e-05 0)
(5.5591274e-07 -2.1938015e-05 0)
(5.4073797e-07 -2.2485321e-05 0)
(5.2691839e-07 -2.3014726e-05 0)
(5.1529273e-07 -2.3516321e-05 0)
(4.9592942e-07 -2.3963567e-05 0)
(5.7730309e-08 -2.977161e-08 0)
(1.9599391e-07 -1.222772e-07 0)
(3.532298e-07 -2.8381779e-07 0)
(5.0129978e-07 -5.1791216e-07 0)
(6.3805213e-07 -8.2232462e-07 0)
(7.6295674e-07 -1.1914895e-06 0)
(8.7634635e-07 -1.6196069e-06 0)
(9.7866983e-07 -2.1010318e-06 0)
(1.0703941e-06 -2.6303482e-06 0)
(1.1519852e-06 -3.2023743e-06 0)
(1.223906e-06 -3.8121611e-06 0)
(1.2866165e-06 -4.4549908e-06 0)
(1.3405726e-06 -5.1263744e-06 0)
(1.3862269e-06 -5.8220506e-06 0)
(1.4240275e-06 -6.5379833e-06 0)
(1.4544183e-06 -7.2703594e-06 0)
(1.4778388e-06 -8.015587e-06 0)
(1.4947232e-06 -8.7702928e-06 0)
(1.505501e-06 -9.5313194e-06 0)
(1.5105964e-06 -1.0295723e-05 0)
(1.5104281e-06 -1.1060771e-05 0)
(1.5054091e-06 -1.1823938e-05 0)
(1.4959468e-06 -1.2582904e-05 0)
(1.4824429e-06 -1.3335553e-05 0)
(1.4652928e-06 -1.4079965e-05 0)
(1.444886e-06 -1.481442e-05 0)
(1.4216058e-06 -1.5537389e-05 0)
(1.3958295e-06 -1.6247533e-05 0)
(1.3679277e-06 -1.6943703e-05 0)
(1.3382644e-06 -1.7624931e-05 0)
(1.3071967e-06 -1.8290429e-05 0)
(1.2750757e-06 -1.8939587e-05 0)
(1.2422476e-06 -1.9571966e-05 0)
(1.2090549e-06 -2.0187304e-05 0)
(1.1758358e-06 -2.0785509e-05 0)
(1.1429129e-06 -2.136667e-05 0)
(1.1105065e-06 -2.1931017e-05 0)
(1.0780336e-06 -2.2478592e-05 0)
(1.0412036e-06 -2.3006429e-05 0)
(9.6892754e-07 -2.3497117e-05 0)
(8.2549273e-07 -2.3822358e-05 0)
)
;

boundaryField
{
    left
    {
        type            calculated;
    }
    right
    {
        type            calculated;
    }
    top
    {
        type            calculated;
    }
    bottom
    {
        type            calculated;
    }
    frontAndBack
    {
        type            empty;
    }
}


// ************************************************************************* //
