/*--------------------------------*- C++ -*----------------------------------*\
| =========                 |                                                 |
| \\      /  F ield         | OpenFOAM: The Open Source CFD Toolbox           |
|  \\    /   O peration     | Version:  2512                                  |
|   \\  /    A nd           | Website:  www.openfoam.com                      |
|    \\/     M anipulation  |                                                 |
\*---------------------------------------------------------------------------*/
FoamFile
{
    version     2.0;
    format      ascii;
    arch        "LSB;label=32;scalar=64";
    class       volSymmTensorField;
    location    "0.3";
    object      sigma;
}
// * * * * * * * * * * * * * * * * * * * * * * * * * * * * * * * * * * * * * //

dimensions      [1 -1 -2 0 0 0 0];

internalField   nonuniform List<symmTensor> 
160
(
(-833566.06 -20580.311 1.9884149e-11 55981.014 2.9826224e-11 -141379.1)
(-883771.22 -43512.472 7.9536597e-11 63887.5 -7.9536597e-11 -149069.77)
(-823916.12 -42697.771 0 69306.965 0 -137201.67)
(-758789.07 -42457.651 3.1814639e-10 63871.818 7.9536597e-10 -126348.59)
(-692781.48 -41377.557 -7.9536597e-10 58309.348 -3.1814639e-10 -115358.57)
(-628944.85 -40163.799 -4.7721958e-10 52936.338 6.3629278e-10 -104728.82)
(-567645.52 -38917.212 -7.9536597e-10 47813.908 -1.2725856e-09 -94514.839)
(-508936.52 -37666.348 0 42917.619 6.3629278e-10 -84730.71)
(-452807.71 -36416.115 0 38238.838 6.3629278e-10 -75376.159)
(-399242.46 -35167.607 6.3629278e-10 33774.143 -1.2725856e-09 -66448.786)
(-348222.57 -33921.152 0 29521.6 -1.2725856e-09 -57945.631)
(-299728.43 -32676.982 6.3629278e-10 25479.49 -5.0903422e-09 -49863.444)
(-253738.91 -31435.265 9.5443917e-10 21646.036 -1.2725856e-09 -42198.704)
(-210231.37 -30196.185 0 18019.347 -6.3629278e-09 -34947.641)
(-169181.71 -28959.894 -6.3629278e-10 14597.417 -2.5451711e-09 -28106.235)
(-130564.45 -27726.559 6.3629278e-10 11378.126 1.2725856e-08 -21670.241)
(-94352.823 -26496.314 0 8359.2485 0 -15635.195)
(-60518.875 -25269.306 6.3629278e-10 5538.4584 2.5451711e-09 -9996.4394)
(-29033.549 -24045.644 6.3629278e-10 2913.3429 -5.0903422e-09 -4749.1283)
(133.18469 -22825.446 -3.1814639e-10 481.40209 0 111.74305)
(27012.254 -21608.801 2.2270247e-09 -1759.9333 0 4591.3311)
(51635.348 -20395.801 -6.3629278e-10 -3813.3044 1.5271027e-08 8694.9171)
(74034.859 -19186.526 -3.1814639e-10 -5681.4059 0 12427.901)
(94243.754 -17981.066 0 -7366.992 -5.0903422e-09 15795.775)
(112295.54 -16779.52 -1.2725856e-09 -8872.8593 -5.0903422e-09 18804.124)
(128224.17 -15582.025 3.1814639e-10 -10201.879 0 21458.598)
(142064.15 -14388.861 -9.5443917e-10 -11356.966 5.0903422e-09 23764.943)
(153850.8 -13200.449 6.3629278e-10 -12341.127 0 25729.032)
(163620.56 -12017.285 1.2725856e-09 -13157.248 -2.0361369e-08 27356.966)
(171410.15 -10838.848 -6.3629278e-10 -13807.891 4.0722738e-08 28654.957)
(177253.64 -9663.287 9.5443917e-10 -14295.248 0 29628.798)
(181179.39 -8488.587 -3.1814639e-10 -14620.797 -1.0180684e-08 30283.381)
(183209.07 -7316.7355 6.3629278e-10 -14783.683 -5.0903422e-09 30622.798)
(183363.57 -6161.3489 3.1814639e-10 -14771.073 1.0180684e-08 30653.181)
(181692.87 -5070.903 -9.5443917e-10 -14521.56 5.0903422e-09 30394.784)
(178498.79 -4232.2865 0 -13861.784 1.5271027e-08 29934)
(176411.73 -4615.3226 -3.1814639e-10 -12422.143 -1.5271027e-08 29816.289)
(187150.56 -8720.6852 -3.1814639e-10 -14918.121 1.0180684e-08 31314.99)
(307736.19 -37493.853 6.3629278e-10 -35036.752 0 49581.715)
(503012.04 16473.276 0 -491479.06 0 2096.9046)
(-332230.75 -118337.61 -3.2311743e-11 -27887.568 -6.4623485e-11 -65476.058)
(-301323.91 -103829.02 -7.9536597e-11 23941.323 -7.9536597e-11 -50433.198)
(-277022.7 -96644.009 -2.1872564e-10 24477.163 -1.5907319e-10 -45917.371)
(-253789.71 -92059.766 -7.9536597e-11 22043.578 0 -42135.66)
(-231584.29 -88605.589 -2.7837809e-10 19869.623 -3.1814639e-10 -38493.576)
(-210272.35 -85406.376 -2.3860979e-10 18003.856 -3.1814639e-10 -34957.908)
(-189834.1 -82266.398 -4.7721958e-10 16279.392 0 -31555.401)
(-170261.05 -79145.731 -3.9768299e-10 14642.794 -6.3629278e-10 -28294.229)
(-151547.59 -76038.957 -3.1814639e-10 13080.693 3.1814639e-09 -25175.798)
(-133688.09 -72946.515 -4.7721958e-10 11590.081 2.5451711e-09 -22199.639)
(-116676.58 -69869.678 -3.9768299e-10 10170.012 -2.5451711e-09 -19364.83)
(-100506.53 -66809.785 -7.9536597e-10 8819.8793 -1.2725856e-09 -16670.301)
(-85170.94 -63768.129 -4.7721958e-10 7539.0882 1.2725856e-09 -14114.882)
(-70662.269 -60745.959 0 6327.0169 -2.5451711e-09 -11697.319)
(-56972.515 -57744.454 -7.9536597e-10 5183.007 2.5451711e-09 -9416.2741)
(-44093.207 -54764.731 -8.7490257e-10 4106.3644 7.6355133e-09 -7270.3349)
(-32015.453 -51807.825 -4.7721958e-10 3096.3612 -2.5451711e-09 -5258.0168)
(-20729.961 -48874.695 -1.5907319e-10 2152.2369 1.0180684e-08 -3377.7681)
(-10227.079 -45966.21 -1.5907319e-10 1273.2017 -1.0180684e-08 -1627.9777)
(-496.82051 -43083.156 -6.3629278e-10 458.43826 1.7816198e-08 -6.9785905)
(8471.0884 -40226.23 -6.3629278e-10 -292.8958 1.0180684e-08 1486.9441)
(16687.187 -37396.055 -1.5907319e-10 -981.66572 0 2855.5493)
(24162.233 -34593.19 -3.1814639e-10 -1608.7571 -5.0903422e-09 4100.632)
(30907.186 -31818.144 -7.9536597e-10 -2175.0751 -2.5451711e-08 5224.0201)
(36933.166 -29071.407 -7.9536597e-10 -2681.543 0 6227.5678)
(42251.462 -26353.527 -8.7490257e-10 -3129.1324 1.0180684e-08 7113.1509)
(46873.558 -23665.213 -5.5675618e-10 -3518.8595 -1.0180684e-08 7882.6725)
(50811.206 -21007.384 -1.5907319e-10 -3851.8409 0 8538.0664)
(54076.344 -18380.462 -4.7721958e-10 -4129.0686 -5.0903422e-09 9081.3228)
(56680.727 -15782.853 -4.7721958e-10 -4351.1121 -5.0903422e-09 9514.4755)
(58635.181 -13210.155 0 -4517.9838 1.0180684e-08 9839.4904)
(59949.189 -10657.081 0 -4629.0137 -5.0903422e-09 10058.214)
(60630.758 -8121.4717 -6.3629278e-10 -4681.6455 5.0903422e-09 10172.566)
(60686.49 -5601.2075 -7.1582938e-10 -4659.585 0 10186.71)
(60115.171 -3054.1751 -7.9536597e-10 -4475.4926 -5.0903422e-09 10116.305)
(58882.594 -207.86188 -4.7721958e-10 -3742.434 1.0180684e-08 10025.484)
(56794.296 4332.4306 7.9536597e-11 -1191.0453 1.0180684e-08 10109.682)
(53205.141 16055.2 -3.1814639e-10 5580.5356 -1.0180684e-08 10688.305)
(43199.473 55808.31 -4.7721958e-10 -2324.9162 -2.0361369e-08 7431.7376)
(31379.898 110105.08 -6.3629278e-10 -186474.45 -2.0361369e-08 -28199.009)
(332176.71 -118334.7 -1.2427593e-11 27882.514 1.9884149e-11 65465.313)
(301268.31 -103827.51 7.9536597e-11 -23937.801 -1.5907319e-10 50423.729)
(276966.58 -96641.986 -3.9768299e-11 -24471.351 1.5907319e-10 45908.224)
(253733.36 -92056.869 -3.9768299e-10 -22037.335 7.9536597e-10 42126.549)
(231527.8 -88601.825 -3.9768299e-11 -19863.389 -2.5451711e-09 38484.439)
(210215.85 -85401.814 1.5907319e-10 -17997.681 3.1814639e-10 34948.758)
(189777.77 -82261.093 0 -16273.262 6.3629278e-10 31546.274)
(170205.11 -79139.716 1.5907319e-10 -14636.7 6.3629278e-10 28285.165)
(151492.25 -76032.261 7.9536597e-11 -13074.634 4.4540495e-09 25166.84)
(133633.62 -72939.158 4.7721958e-10 -11584.065 2.5451711e-09 22190.828)
(116623.2 -69861.686 2.3860979e-10 -10164.059 0 19356.207)
(100454.47 -66801.178 -7.9536597e-11 -8814.0123 -2.5451711e-09 16661.902)
(85120.414 -63758.937 7.9536597e-11 -7533.34 -2.5451711e-09 14106.741)
(70613.478 -60736.204 -1.5907319e-10 -6321.4209 -2.5451711e-09 11689.465)
(56925.636 -57734.167 -3.9768299e-10 -5177.5977 1.5271027e-08 9408.7342)
(44048.409 -54753.939 7.9536597e-11 -4101.1732 -2.5451711e-09 7263.1339)
(31972.882 -51796.562 7.9536597e-11 -3091.4171 -7.6355133e-09 5251.1755)
(20689.752 -48862.99 0 -2147.5638 5.0903422e-09 3371.3069)
(10189.342 -45954.098 -6.3629278e-10 -1268.8195 -5.0903422e-09 1621.9132)
(461.65728 -43070.669 -3.1814639e-10 -454.36015 2.0361369e-08 1.32675)
(-8503.6054 -40213.406 -4.7721958e-10 296.66149 -2.5451711e-09 -1492.1716)
(-16717.006 -37382.93 1.5907319e-10 985.11805 -5.0903422e-09 -2860.3432)
(-24189.352 -34579.801 7.9536597e-11 1611.9006 -1.5271027e-08 -4104.9912)
(-30931.662 -31804.524 1.5907319e-10 2177.9294 -1.5271027e-08 -5227.9513)
(-36955.158 -29057.588 0 2684.1367 -1.0180684e-08 -6231.0948)
(-42271.247 -26339.537 7.9536597e-11 3131.4667 1.0180684e-08 -7116.3236)
(-46891.532 -23651.118 -7.9536597e-11 3520.7614 0 -7885.5946)
(-50827.819 -20993.328 -7.9536597e-11 3852.6913 0 -8540.9323)
(-54092.074 -18366.551 1.5907319e-10 4127.9216 -1.5271027e-08 -9084.3913)
(-56696.085 -15769.067 7.9536597e-11 4347.5295 5.0903422e-09 -9517.9192)
(-58650.815 -13196.21 0 4513.2638 -2.5451711e-08 -9843.1912)
(-59965.735 -10642.718 0 4626.3828 -2.5451711e-08 -10061.7)
(-60648.696 -8106.9921 0 4683.6767 0 -10175.458)
(-60705.314 -5587.3206 0 4665.0457 0 -10189.14)
(-60133.484 -3041.2833 1.5907319e-10 4479.5038 0 -10118.905)
(-58898.648 -195.7321 -3.9768299e-10 3740.7219 0 -10028.714)
(-56806.616 4344.4172 0 1184.3887 -5.0903422e-09 -10113.132)
(-53214.32 16067.097 7.9536597e-11 -5587.6538 0 -10691.268)
(-43206.172 55819.158 0 2319.458 1.0180684e-08 -7433.948)
(-31382.734 110112.27 -7.9536597e-11 186463.62 2.0361369e-08 28196.526)
(833519.83 -20578.789 1.3918905e-10 -55978.716 -4.9710373e-11 141371.11)
(883720.31 -43511.239 3.9768299e-10 -63883.865 -2.3860979e-10 149061.17)
(823863.25 -42695.924 6.3629278e-10 -69302.199 -3.1814639e-10 137192.92)
(758734.98 -42454.803 0 -63866.796 -3.1814639e-10 126339.67)
(692726.83 -41373.805 -3.1814639e-10 -58304.255 -1.2725856e-09 115349.56)
(628890.02 -40159.237 1.1135124e-09 -52931.232 3.1814639e-10 104719.78)
(567590.78 -38911.906 3.1814639e-10 -47808.812 0 94505.812)
(508882.1 -37660.332 1.2725856e-09 -42912.55 1.9088783e-09 84721.737)
(452753.85 -36409.419 1.5907319e-09 -38233.811 3.1814639e-09 75367.281)
(399189.41 -35160.247 1.2725856e-09 -33769.174 1.2725856e-09 66440.043)
(348170.56 -33913.16 1.5907319e-09 -29516.706 3.8177567e-09 57937.064)
(299677.68 -32668.374 -9.5443917e-10 -25474.691 -8.9080989e-09 49855.088)
(253689.63 -31426.072 -3.1814639e-10 -21641.354 -2.5451711e-09 42190.595)
(210183.75 -30186.429 0 -18014.804 -6.3629278e-09 34939.809)
(169135.94 -28949.607 -3.1814639e-10 -14593.035 1.0180684e-08 28098.71)
(130520.68 -27715.766 3.1814639e-10 -11373.925 2.5451711e-09 21663.047)
(94311.213 -26485.051 2.2270247e-09 -8355.2475 7.6355133e-09 15628.357)
(60479.547 -25257.598 1.2725856e-09 -5534.6746 1.0180684e-08 9989.9768)
(28996.62 -24033.531 9.5443917e-10 -2909.7884 -2.5451711e-09 4743.0603)
(-167.62563 -22812.958 -6.3629278e-10 -478.08801 -2.5451711e-09 -117.40248)
(-27044.13 -21595.977 1.5907319e-09 1763.002 2.7996882e-08 -4596.5687)
(-51664.622 -20382.675 2.2270247e-09 3816.1243 5.0903422e-09 -8699.7268)
(-74061.529 -19173.139 2.2270247e-09 5683.9793 -1.0180684e-08 -12432.282)
(-94267.884 -17967.445 -9.5443917e-10 7369.3271 -1.0180684e-08 -15799.738)
(-112317.25 -16765.698 1.2725856e-09 8874.9679 1.0180684e-08 -18807.689)
(-128243.66 -15568.014 1.5907319e-09 10203.76 -5.0903422e-09 -21461.799)
(-142081.66 -14374.724 0 11358.553 1.0180684e-08 -23767.838)
(-153866.87 -13186.396 0 12342.153 -5.0903422e-09 -25731.766)
(-163636.09 -12003.455 -6.3629278e-10 13157.356 5.0903422e-09 -27359.77)
(-171426.21 -10825.229 0 13807.046 0 -28658.03)
(-177270.8 -9649.4155 1.2725856e-09 14294.224 1.0180684e-08 -29632.105)
(-181196.96 -8474.0118 2.5451711e-09 14621.08 0 -30286.524)
(-183226.22 -7301.8999 3.1814639e-10 14786.056 -1.0180684e-08 -30625.484)
(-183380.02 -6147.3175 6.3629278e-10 14774.561 -2.0361369e-08 -30655.538)
(-181709.44 -5058.2651 1.9088783e-09 14523.834 1.0180684e-08 -30397.383)
(-178516.19 -4220.6178 1.2725856e-09 13861.11 5.0903422e-09 -29937.287)
(-176427.93 -4603.4177 1.5907319e-09 12419.393 -1.0180684e-08 -29819.735)
(-187162.12 -8708.3698 3.1814639e-10 14915.731 1.5271027e-08 -31317.525)
(-307742.3 -37482.618 9.5443917e-10 35035.665 -1.5271027e-08 -49583.025)
(-503014.13 16479.707 7.9536597e-10 491481.46 -1.5271027e-08 -2096.8503)
)
;

boundaryField
{
    left
    {
        type            calculated;
        value           nonuniform List<symmTensor> 4((-1043605.9 -61222.347 0 -7977.8142 0 -191197.03) (-306952.95 -91600.091 0 -68211.766 0 -68211.766) (306901.09 -91596.033 0 68200.241 0 68200.241) (1043552.5 -61215.855 0 7977.3369 0 191187.25));
    }
    right
    {
        type            calculated;
        value           nonuniform List<symmTensor> 4((86448.791 3894.6666 0 -1042867.8 0 -173894.36) (29628.854 5827.3306 0 -357393.25 0 -59593.527) (-29627.475 5827.2892 0 357376.81 0 59590.788) (-86449.24 3894.6209 0 1042873.2 0 173895.26));
    }
    top
    {
        type            calculated;
        value           nonuniform List<symmTensor> 
40
(
(1021055.3 -288.32981 0 -84942.072 0 170202.41)
(1161166.8 -552.55503 0 -96579.599 0 193561.3)
(1093481.2 -881.63764 0 -90934.146 0 182281.28)
(1009904.7 -1226.9034 0 -83969.648 0 168351.83)
(922413.29 -1571.1883 0 -76680.726 0 153769.56)
(837378.89 -1911.1978 0 -69597.285 0 139596.66)
(755659.06 -2245.6125 0 -62790.615 0 125976.08)
(677387.11 -2573.4535 0 -56271.786 0 112930.06)
(602556.26 -2893.7919 0 -50040.215 0 100457.46)
(531144.64 -3205.7272 0 -44094.064 0 88554.651)
(463127.87 -3508.3915 0 -38431.281 0 77217.562)
(398479.72 -3800.9536 0 -33049.66 0 66441.83)
(337171.99 -4082.6218 0 -27946.828 0 56222.756)
(279174.42 -4352.6469 0 -23120.241 0 46555.305)
(224454.83 -4610.3239 0 -18567.192 0 37434.117)
(172979.2 -4854.9942 0 -14284.819 0 28853.524)
(124711.77 -5086.0466 0 -10270.119 0 20807.573)
(79615.206 -5302.9188 0 -6519.9525 0 13290.046)
(37650.707 -5505.0981 0 -3031.059 0 6294.4815)
(-1221.8457 -5692.122 0 199.93168 0 -185.80255)
(-37043.744 -5863.5779 0 3176.4879 0 -6157.6829)
(-69857.33 -6019.1037 0 5902.1652 0 -11628.212)
(-99705.868 -6158.3867 0 8380.596 0 -16604.595)
(-126633.41 -6281.1633 0 10615.478 0 -21094.17)
(-150684.71 -6387.2178 0 12610.566 0 -25104.39)
(-171905.05 -6476.3816 0 14369.659 0 -28642.798)
(-190340.44 -6548.5305 0 15896.617 0 -31717.058)
(-206038.45 -6603.5852 0 17195.429 0 -34335.095)
(-219048.77 -6641.5133 0 18270.259 0 -36505.183)
(-229421.52 -6662.3346 0 19125.31 0 -38235.674)
(-237201.98 -6666.119 0 19764.376 0 -39534.11)
(-242425.55 -6652.9703 0 20190.422 0 -40406.388)
(-245119.6 -6623.0077 0 20405.743 0 -40857.066)
(-245316.56 -6576.3816 0 20413.06 0 -40891.545)
(-243132.02 -6513.3299 0 20222.004 0 -40529.094)
(-239319.4 -6433.8407 0 19895.086 0 -39895.329)
(-239812.99 -6334.187 0 19924.25 0 -39979.77)
(-271993.76 -6177.0678 0 22579.127 0 -45348.116)
(-533778.42 -5789.3459 0 44265.235 0 -89002.397)
(-1059311.8 -3856.2303 0 87813.154 0 -176636.12)
)
;
    }
    bottom
    {
        type            calculated;
        value           nonuniform List<symmTensor> 
40
(
(-1021095.3 -288.29553 0 84945.426 0 -170209.07)
(-1161214.3 -552.54194 0 96583.591 0 -193569.23)
(-1093532.1 -881.63446 0 90938.415 0 -182289.75)
(-1009957.6 -1226.903 0 83974.084 0 -168360.64)
(-922466.98 -1571.1886 0 76685.232 0 -153778.5)
(-837432.88 -1911.1984 0 69601.816 0 -139605.65)
(-755713.01 -2245.6134 0 62795.142 0 -125985.07)
(-677440.77 -2573.4547 0 56276.288 0 -112939)
(-602609.37 -2893.7933 0 50044.671 0 -100466.31)
(-531196.98 -3205.729 0 44098.455 0 -88563.368)
(-463179.19 -3508.3937 0 38435.587 0 -77226.11)
(-398529.82 -3800.956 0 33053.863 0 -66450.174)
(-337220.64 -4082.6245 0 27950.909 0 -56230.861)
(-279221.45 -4352.6499 0 23124.185 0 -46563.139)
(-224500.05 -4610.3272 0 18570.983 0 -37441.649)
(-173022.45 -4854.9976 0 14288.446 0 -28860.729)
(-124752.91 -5086.0502 0 10273.568 0 -20814.425)
(-79654.101 -5302.9226 0 6523.213 0 -13296.525)
(-37687.241 -5505.102 0 3034.1213 0 -6300.5672)
(1187.7551 -5692.1259 0 -197.07462 0 180.12371)
(37012.175 -5863.5818 0 -3173.8426 0 6152.4241)
(69828.312 -6019.1075 0 -5899.7341 0 11623.378)
(99679.399 -6158.3904 0 -8378.3789 0 16600.185)
(126609.43 -6281.1667 0 -10613.469 0 21090.174)
(150663.11 -6387.221 0 -12608.757 0 25100.792)
(171885.71 -6476.3844 0 -14368.041 0 28639.577)
(190323.24 -6548.5337 0 -15895.178 0 31714.194)
(206022.83 -6603.5902 0 -17194.122 0 34332.492)
(219033.48 -6641.5199 0 -18268.98 0 36502.636)
(229405 -6662.3398 0 -19123.928 0 38232.923)
(237183.62 -6666.1169 0 -19762.839 0 39531.051)
(242407.02 -6652.9583 0 -20188.87 0 40403.3)
(245102.9 -6622.9933 0 -20404.345 0 40854.283)
(245301.93 -6576.3778 0 -20411.835 0 40889.108)
(243117.07 -6513.3418 0 -20220.753 0 40526.604)
(239301.58 -6433.8593 0 -19893.594 0 39892.361)
(239794.57 -6334.1957 0 -19922.707 0 39976.703)
(271980.88 -6177.064 0 -22578.048 0 45345.97)
(533773.06 -5789.3446 0 -44264.786 0 89001.504)
(1059308.3 -3856.2448 0 -87812.859 0 176635.54)
)
;
    }
    frontAndBack
    {
        type            empty;
    }
}


// ************************************************************************* //
