/*--------------------------------*- C++ -*----------------------------------*\
| =========                 |                                                 |
| \\      /  F ield         | OpenFOAM: The Open Source CFD Toolbox           |
|  \\    /   O peration     | Version:  2512                                  |
|   \\  /    A nd           | Website:  www.openfoam.com                      |
|    \\/     M anipulation  |                                                 |
\*---------------------------------------------------------------------------*/
FoamFile
{
    version     2.0;
    format      ascii;
    arch        "LSB;label=32;scalar=64";
    class       volScalarField;
    location    "0.3";
    object      sigmaEq;
}
// * * * * * * * * * * * * * * * * * * * * * * * * * * * * * * * * * * * * * //

dimensions      [1 -1 -2 0 0 0 0];

internalField   nonuniform List<scalar> 
160
(
809910.21
864451.87
813329.16
749583.76
684831.29
622214.38
562133.31
504628.67
449692.37
397316.13
347495.14
300229.89
255530.17
213423.45
173972.28
137314.26
103764.87
74123.707
50686.331
39536.467
45675.577
61525.692
79645.413
97353.108
113749.19
128490.93
141436.43
152528.35
161749.89
169104.62
174604.79
178263.91
180092.56
180095.72
178273.63
174785.05
171843.46
183997.67
316015.85
861734.86
353000.34
345657.33
320396.33
296521.85
274795.43
254377.3
234978.35
216531.61
199031.9
182488.81
166917
152334.85
138764.64
126232.96
114770.59
104411.7
95191.649
87142.669
80286.901
74626.802
70134.338
66742.102
64340.274
62782.057
61896.735
61506.317
61440.759
61548.51
61700.83
61791.528
61735.435
61467.913
60943.157
60120.675
58909.8
57003.185
53768.388
53143.627
105200.76
272763.68
352959.63
345610.01
320346.78
296471.52
274744.83
254326.68
234927.93
216481.66
198982.67
182440.59
166870.09
152289.53
138721.24
126191.78
114731.93
104375.88
95158.963
87113.375
80261.203
74604.806
70116.022
66727.282
64328.629
62773.16
61890.16
61501.705
61437.853
61546.974
61700.105
61791.317
61736.669
61473.16
60954.903
60137.857
58927.524
57016.613
53777.857
53157.623
105218.9
272766.81
809865.85
864402.3
813276.87
749530.01
684776.83
622159.58
562078.43
504573.91
449637.96
397262.27
347442.03
300177.7
255479.06
213373.54
173923.69
137267.06
103719.22
74080.249
50648.217
39514.652
45675.515
61536.422
79659.791
97368.251
113763.91
128504.74
141449.15
152540.08
161761.08
169116.1
174617.49
178278.17
180108.24
180111.96
178289.47
174799.74
171855.42
184004.79
316016.57
861739.13
)
;

boundaryField
{
    left
    {
        type            calculated;
        value           nonuniform List<scalar> 4(963115.93 286651.5 286614.01 963066.11);
    }
    right
    {
        type            calculated;
        value           nonuniform List<scalar> 4(1024290.1 351166.04 351149.88 1024295.3);
    }
    top
    {
        type            calculated;
        value           nonuniform List<scalar> 
40
(
1003065.4
1140694.9
1074191.8
992080.55
906124.76
822584.3
742301.71
665408.2
591897.44
521748.41
454937.83
391440.94
331231.6
274282.76
220567.6
170062.29
122754.27
78674.819
38124.935
9940.9542
37848.592
69479.576
98590.87
124936
148497.41
169298.66
187375.91
202771.36
215531.31
225703.52
233331.56
238449.62
241084.23
241267.04
239111.4
235356.5
235824.05
267380.33
524367.02
1040441
)
;
    }
    bottom
    {
        type            calculated;
        value           nonuniform List<scalar> 
40
(
1003104.6
1140741.7
1074241.9
992132.51
906177.54
822637.36
742354.73
665460.94
591949.64
521799.85
454988.27
391490.17
331279.41
274328.97
220612.01
170104.75
122794.6
78712.785
38159.704
9936.7282
37818.706
69451.381
98565.01
124912.52
148476.24
169279.7
187359.04
202756.03
215516.3
225687.31
233313.53
238431.42
241067.83
241252.67
239096.73
235339.01
235805.98
267367.68
524361.75
1040437.5
)
;
    }
    frontAndBack
    {
        type            empty;
    }
}


// ************************************************************************* //
