/*--------------------------------*- C++ -*----------------------------------*\
| =========                 |                                                 |
| \\      /  F ield         | OpenFOAM: The Open Source CFD Toolbox           |
|  \\    /   O peration     | Version:  2512                                  |
|   \\  /    A nd           | Website:  www.openfoam.com                      |
|    \\/     M anipulation  |                                                 |
\*---------------------------------------------------------------------------*/
FoamFile
{
    version     2.0;
    format      ascii;
    arch        "LSB;label=32;scalar=64";
    class       volScalarField;
    location    "0.3";
    object      sigmaHyd;
}
// * * * * * * * * * * * * * * * * * * * * * * * * * * * * * * * * * * * * * //

dimensions      [1 -1 -2 0 0 0 0];

internalField   nonuniform List<scalar> 
160
(
-306321.38
-322984.49
-297270.27
-273755.28
-249943.57
-226912.44
-204782.15
-183583.21
-163315.01
-143972.37
-125548.87
-108037.46
-91430.526
-75719.889
-60896.842
-46952.189
-33876.256
-21658.952
-10289.778
242.10994
9947.884
18838.987
26927.118
34224.179
40742.268
46493.629
51490.711
55746.236
59273.427
62085.74
64195.729
65613.993
66349.397
66415.226
65855.365
64857.001
64601.959
67849.144
107427.05
4543.2933
-141864.79
-109271.93
-99487.636
-91293.93
-83402.747
-75742.133
-68370.036
-61304.163
-54547.563
-48099.217
-41957.132
-36118.985
-30582.245
-25344.19
-20401.927
-15752.392
-11392.37
-7318.4975
-3527.2851
-15.120279
3221.7122
6187.0234
8884.7027
11318.71
13493.064
15411.827
17079.124
18499.144
19676.199
20614.697
21318.896
21792.796
22040.56
22071.205
21918.661
21721.881
21904.311
23157.994
16102.098
-61097.852
141841.51
109251.41
99467.819
91274.19
83382.95
75722.31
68350.26
61284.523
54528.152
48080.127
41938.448
36100.788
30564.605
25327.174
20385.591
15736.79
11377.547
7304.4983
3514.1452
2.8746251
-3233.0385
-6197.4103
-8894.1475
-11327.228
-13500.705
-15418.701
-17085.455
-18505.353
-19682.848
-20622.158
-21326.914
-21800.351
-22046.826
-22076.469
-21924.295
-21728.88
-21911.787
-23164.414
-16106.887
61092.472
306304.08
322965.87
297251.32
273735.95
249924.05
226892.86
204762.59
183563.76
163295.77
143953.43
125530.3
108019.36
91412.957
75702.92
60880.538
46936.602
33861.441
21644.95
10276.631
-254.37204
-9959.2321
-18849.408
-26936.61
-34232.765
-40749.992
-46500.565
-51496.983
-55752.16
-59279.501
-62092.399
-64202.894
-65620.803
-66355.215
-66420.333
-65860.996
-64864.122
-64609.425
-67854.638
-107429.89
-4543.1757
)
;

boundaryField
{
    left
    {
        type            zeroGradient;
    }
    right
    {
        type            zeroGradient;
    }
    top
    {
        type            zeroGradient;
    }
    bottom
    {
        type            zeroGradient;
    }
    frontAndBack
    {
        type            empty;
    }
}


// ************************************************************************* //
