/*--------------------------------*- C++ -*----------------------------------*\
| =========                 |                                                 |
| \\      /  F ield         | OpenFOAM: The Open Source CFD Toolbox           |
|  \\    /   O peration     | Version:  2512                                  |
|   \\  /    A nd           | Website:  www.openfoam.com                      |
|    \\/     M anipulation  |                                                 |
\*---------------------------------------------------------------------------*/
FoamFile
{
    version     2.0;
    format      ascii;
    arch        "LSB;label=32;scalar=64";
    class       surfaceSymmTensorField;
    location    "0.3";
    object      sigmaf;
}
// * * * * * * * * * * * * * * * * * * * * * * * * * * * * * * * * * * * * * //

dimensions      [1 -1 -2 0 0 0 0];

internalField   nonuniform List<symmTensor> 
276
(
(-1022313.9 -40971.56 0 -31742.868 0 -243243.88)
(-699013.35 -117081.44 0 -18264.579 0 -165525.67)
(-938339.53 -42991.225 0 -2764.2757 0 -217177.8)
(-651038.71 -84507.675 0 4154.6927 0 -149280.93)
(-861161.16 -43953.947 0 -163.49166 0 -198767.23)
(-599907.67 -78062.806 0 3116.4418 0 -137721.05)
(-787625.12 -43269.138 0 100.67394 0 -181736.41)
(-549828.05 -74768.14 0 1470.5059 0 -126544.05)
(-716989.28 -42098.625 0 51.590057 0 -165447.16)
(-501709.62 -72213.277 0 983.03737 0 -115552.29)
(-649174.06 -40816.262 0 28.815977 0 -149802.75)
(-455526.12 -69732.677 0 867.18584 0 -104921.29)
(-584168.09 -39513.388 0 23.279443 0 -134802.65)
(-411240.56 -67258.589 0 842.97651 0 -94707.135)
(-521960.39 -38209.015 0 23.830059 0 -120446.9)
(-368832.03 -64788.164 0 835.93721 0 -84922.175)
(-462536.83 -36905.849 0 25.99504 0 -106733.27)
(-328286.4 -62325.066 0 832.17506 0 -75566.361)
(-405879 -35605.348 0 28.868927 0 -93657.723)
(-289591.47 -59871.28 0 827.99798 0 -66637.724)
(-351967.48 -34307.042 0 31.98644 0 -81215.884)
(-252733.8 -57428.326 0 824.12504 0 -58133.001)
(-300779.77 -33011.969 0 35.464105 0 -69402.533)
(-217699.63 -54997.11 0 819.31676 0 -50049.303)
(-252292.79 -31719.482 0 39.091078 0 -58212.392)
(-184473.37 -52578.722 0 814.81869 0 -42382.743)
(-206480.72 -30430.678 0 43.022644 0 -47639.469)
(-153039.1 -50173.906 0 809.33266 0 -35129.946)
(-163317.26 -29144.807 0 47.078438 0 -37677.734)
(-123379.04 -47783.626 0 804.243 0 -28286.491)
(-122773.66 -27863.025 0 51.399 0 -28320.522)
(-95475.26 -45408.541 0 798.14386 0 -21848.565)
(-84820.774 -26584.485 0 55.824357 0 -19561.142)
(-69308.045 -43049.497 0 792.53589 0 -15811.271)
(-49427.343 -25310.383 0 60.474786 0 -11392.354)
(-44857.711 -40707.057 0 785.91295 0 -10170.415)
(-16561.788 -24039.78 0 65.211108 0 -3806.9023)
(-22102.855 -38381.93 0 779.87395 0 -4920.6879)
(13809.22 -22773.897 0 70.132118 0 3202.9275)
(-1022.3251 -36074.579 0 772.82454 0 -57.577053)
(41719.245 -21511.713 0 75.119995 0 9644.8534)
(18406.657 -33785.569 0 766.44374 0 4424.5616)
(67203.246 -20254.476 0 80.251508 0 15526.961)
(36206.424 -31515.27 0 759.05884 0 8530.4961)
(90296.348 -19001.111 0 85.430141 0 20857.333)
(52400.837 -29264.134 0 752.40946 0 12266.134)
(111034.77 -17752.903 0 90.710054 0 25644.34)
(67013.141 -27032.471 0 744.75731 0 15636.438)
(129454.85 -16508.777 0 96.017448 0 29896.353)
(80068.026 -24820.684 0 737.8655 0 18647.513)
(145593.88 -15270.087 0 101.36042 0 33621.978)
(91589.495 -22629.138 0 729.96201 0 21304.49)
(159489.49 -14036.093 0 106.68668 0 36829.888)
(101602.98 -20458.442 0 722.65316 0 23613.607)
(171180.51 -12808.407 0 111.90077 0 39529.018)
(110133.5 -18309.329 0 714.42565 0 25580.289)
(180705.99 -11586.625 0 117.08976 0 41728.402)
(117207.2 -16182.349 0 706.47045 0 27210.847)
(188104.31 -10370.104 0 122.59345 0 43436.977)
(122849.42 -14076.42 0 698.69799 0 28511.103)
(193410.46 -9155.6373 0 129.3185 0 44663.027)
(127083.99 -11988.547 0 692.49302 0 29486.88)
(196657.64 -7942.251 0 140.25022 0 45414.899)
(129931.42 -9916.1501 0 688.72494 0 30143.11)
(197881.71 -6736.5802 0 164.70281 0 45703.017)
(131408.44 -7863.9057 0 691.09874 0 30484.509)
(197143.94 -5572.3597 0 239.9304 0 45550.125)
(131525.53 -5852.8027 0 717.30117 0 30517.577)
(194549.05 -4584.5497 0 485.47494 0 45007.968)
(130268.63 -3932.0318 0 870.72796 0 30262.93)
(190281.07 -4394.7455 0 1094.5238 0 44163.6)
(127530.02 -2175.0973 0 1645.2087 0 29809.669)
(184315.42 -7701.0592 0 1464.5015 0 42872.29)
(122921.53 -374.06914 0 5122.0371 0 29548.516)
(174311.59 -23256.709 0 -14082.486 0 36975.947)
(115745.52 3790.2245 0 17328.032 0 30709.28)
(136713.04 -67302.058 0 -112618.14 0 5560.3601)
(106626.76 31564.851 0 45427.199 0 35089.376)
(133651.91 131180.15 0 -70842.712 0 14494.431)
(-344539.32 -107489.45 0 -5631.7224 0 -80808.703)
(-29.28089 -113549.35 0 -3.5089338 0 -7.5668825)
(-315710.15 -100972.04 0 930.63417 0 -72641.427)
(-30.712185 -113328.9 0 0.078894854 0 -7.0692209)
(-288509.98 -95493.721 0 829.11337 0 -66387.892)
(-30.926899 -105260.9 0 1.1001949 0 -6.8830856)
(-263412.61 -91663.586 0 460.12811 0 -60681.343)
(-31.0006 -99864.37 0 1.0856231 0 -6.9034562)
(-239702.51 -88325.838 0 349.65208 0 -55235.275)
(-30.983616 -95921.592 0 1.1235956 0 -6.890774)
(-217052.92 -85110.054 0 324.30477 0 -50014.296)
(-30.986966 -92380.145 0 0.96021147 0 -6.9292511)
(-195370.04 -81926.525 0 319.26841 0 -45011.716)
(-30.84234 -88938.483 0 1.0507044 0 -6.8749929)
(-174627.49 -78758.869 0 317.73284 0 -40225.329)
(-30.653809 -85527.322 0 0.92954197 0 -6.8594463)
(-154814.26 -75605.573 0 316.62002 0 -35653.302)
(-30.266513 -82134.051 0 1.0722085 0 -6.7371471)
(-135923.32 -72467.607 0 315.37565 0 -31294.141)
(-29.824294 -78757.582 0 0.95935389 0 -6.66114)
(-117947.25 -69346.352 0 314.04406 0 -27146.125)
(-29.173416 -75398.956 0 1.1230369 0 -6.4731645)
(-100878.98 -66243.12 0 312.55498 0 -23207.636)
(-28.48353 -72059.581 0 0.98845666 0 -6.3450169)
(-84710.293 -63159.253 0 310.98645 0 -19476.763)
(-27.590229 -68740.892 0 1.1482924 0 -6.1019855)
(-69433.068 -60095.958 0 309.27758 0 -15951.644)
(-26.682021 -65444.289 0 0.97583805 0 -5.9321961)
(-55038.12 -57054.452 0 307.49669 0 -12630.144)
(-25.580347 -62171.109 0 1.1223117 0 -5.644162)
(-41516.303 -54035.8 0 305.59477 0 -9510.1634)
(-24.488943 -58922.613 0 0.91230269 0 -5.4407631)
(-28857.551 -51041.065 0 303.63174 0 -6589.366)
(-23.215182 -55699.975 0 1.0474474 0 -5.1156312)
(-17051.82 -48071.144 0 301.56998 0 -3865.4423)
(-21.975599 -52504.278 0 0.80790397 0 -4.8848528)
(-6088.3025 -45126.925 0 299.45974 0 -1335.8868)
(-20.565473 -49336.509 0 0.93720821 0 -4.5295996)
(4043.8034 -42209.127 0 297.27434 0 1001.7872)
(-19.212892 -46197.555 0 0.67875452 0 -4.2771087)
(13355.899 -39318.465 0 295.05274 0 3150.2197)
(-17.705268 -43088.211 0 0.81026742 0 -3.8988464)
(21859.396 -36455.499 0 292.77682 0 5112.0398)
(-16.285375 -40009.179 0 0.54576981 0 -3.6322166)
(29566.145 -33620.816 0 290.47338 0 6889.9888)
(-14.744056 -36961.096 0 0.68786007 0 -3.2437374)
(36488.021 -30814.874 0 288.12888 0 8486.8039)
(-13.355149 -33944.531 0 0.42901388 0 -2.9829541)
(42637.217 -28038.217 0 285.75456 0 9905.3011)
(-11.93092 -30960.04 0 0.60247093 0 -2.6142576)
(48026.007 -25291.427 0 283.27587 0 11148.296)
(-10.785766 -28008.228 0 0.36949724 0 -2.4037543)
(52666.938 -22575.322 0 280.6243 0 12218.668)
(-9.7310751 -25089.881 0 0.49792093 0 -2.1307279)
(56572.749 -19890.939 0 277.52261 0 13119.293)
(-9.0314257 -22205.964 0 -0.091155242 0 -2.105211)
(59755.96 -17238 0 274.07224 0 13853.084)
(-8.5234192 -19356.787 0 -1.0715913 0 -2.2142332)
(62228.308 -14613.633 0 270.68045 0 14422.844)
(-8.4749032 -16540.344 0 -3.0742382 0 -2.6651865)
(63999.095 -12011.861 0 268.10738 0 14830.893)
(-8.8028811 -13751.349 0 -4.5265283 0 -3.0760176)
(65073.348 -9427.6145 0 266.83416 0 15078.504)
(-9.4743347 -10982.511 0 -4.0372337 0 -3.1180542)
(65443.465 -6859.2596 0 267.2598 0 15164.013)
(-9.9092271 -8226.13 0 -0.32493067 0 -2.3617287)
(65058.731 -4293.3116 0 283.03191 0 15078.868)
(-10.005831 -5460.0851 0 3.0238 0 -1.611238)
(63702.459 -1610.1232 0 406.65069 0 14794.41)
(-9.4609058 -2567.1827 0 3.0070458 0 -1.4893523)
(60529.122 1815.9886 0 1066.2379 0 14214.314)
(-8.2788596 1006.6443 0 -1.0167894 0 -2.1451498)
(52543.756 8697.327 0 3473.7347 0 12927.113)
(-6.4777865 7616.8161 0 -5.1854462 0 -2.6915152)
(30744.105 27758.538 0 8232.4237 0 8994.5835)
(-5.0728292 25573.288 0 -5.8038662 0 -2.5100066)
(-13876.617 74863.601 0 -28539.478 0 -9788.3296)
(-3.5612552 76048.909 0 -3.5647572 0 -1.6444644)
(-0.9602793 116841.79 0 -4.6450772 0 -1.2935438)
(344477.74 -107487.77 0 5628.0443 0 80793.643)
(698955.78 -117076.55 0 18259.729 0 165511.27)
(315647.76 -100970.33 0 -930.37061 0 72627.091)
(650980.27 -84504.736 0 -4154.5995 0 149267.46)
(288447.79 -95491.316 0 -827.85604 0 66373.832)
(599848.41 -78058.634 0 -3115.2662 0 137707.65)
(263350.26 -91660.218 0 -458.82745 0 60667.253)
(549768.24 -74762.309 0 -1469.2808 0 126530.53)
(239640.37 -88321.71 0 -348.33854 0 55221.237)
(501649.52 -72205.671 0 -981.81562 0 115538.7)
(216990.73 -85105.076 0 -323.07594 0 50000.227)
(455465.91 -69723.565 0 -866.02197 0 104907.67)
(195308.35 -81920.902 0 -317.99325 0 44997.775)
(411180.5 -67247.929 0 -841.78991 0 94693.549)
(174566.2 -78752.463 0 -316.48733 0 40211.473)
(368772.34 -64776.157 0 -834.78221 0 84908.668)
(154753.97 -75598.588 0 -315.29277 0 35639.695)
(328227.37 -62311.63 0 -830.97383 0 75553.014)
(135863.96 -72459.877 0 -314.04975 0 31280.748)
(289533.32 -59856.587 0 -826.81306 0 66624.579)
(117889.39 -69338.1 0 -312.63551 0 27133.098)
(252676.82 -57412.3 0 -822.87445 0 58120.141)
(100822.56 -66234.162 0 -311.15622 0 23194.94)
(217644.04 -54979.914 0 -818.08832 0 50036.758)
(84655.826 -63149.833 0 -309.53737 0 19464.528)
(184419.43 -52560.296 0 -813.52861 0 42370.592)
(69380.493 -60085.876 0 -307.86997 0 15939.836)
(152986.98 -50154.407 0 -808.09656 0 35118.204)
(54987.874 -57043.972 0 -306.08318 0 12618.875)
(123328.97 -47763.013 0 -802.96624 0 28275.232)
(41468.324 -54024.708 0 -304.25584 0 9499.4004)
(95427.391 -45386.964 0 -796.96159 0 21837.791)
(28812.205 -51029.644 0 -302.326 0 6579.2029)
(69262.566 -43026.932 0 -791.33483 0 15801.053)
(17009.048 -48059.168 0 -300.36162 0 3855.8508)
(44814.722 -40683.647 0 -784.84143 0 10160.742)
(6048.3951 -45114.693 0 -298.31032 0 1326.9426)
(22062.522 -38357.671 0 -778.79721 0 4911.6289)
(-4080.9034 -42196.402 0 -296.2281 0 -1010.1073)
(984.70616 -36049.602 0 -771.8991 0 49.10932)
(-13389.985 -39305.559 0 -294.07229 0 -3157.8594)
(-18441.433 -33759.889 0 -765.51182 0 -4432.3719)
(-21890.546 -36442.169 0 -291.88764 0 -5119.0231)
(-36238.359 -31489.01 0 -758.28633 0 -8537.6874)
(-29594.28 -33607.381 0 -289.64123 0 -6896.2894)
(-52429.875 -29237.325 0 -751.62203 0 -12272.653)
(-36513.34 -30801.078 0 -287.3547 0 -8492.4679)
(-67039.404 -27005.221 0 -744.13758 0 -15642.356)
(-42659.89 -28024.377 0 -285.01249 0 -9910.3622)
(-80091.611 -24793.025 0 -737.19558 0 -18652.802)
(-48046.51 -25277.285 0 -282.65292 0 -11152.884)
(-91610.747 -22601.163 0 -729.48069 0 -21309.283)
(-52685.73 -22561.265 0 -280.4936 0 -12222.975)
(-101622.23 -20430.242 0 -722.23303 0 -23617.952)
(-56590.35 -19876.905 0 -278.90903 0 -13123.675)
(-110151.4 -18281.182 0 -714.98795 0 -25584.55)
(-59772.764 -17224.35 0 -278.01155 0 -13857.871)
(-117224.5 -16154.413 0 -709.10228 0 -27215.448)
(-62244.821 -14600.022 0 -277.0975 0 -14428.135)
(-122866.88 -14048.71 0 -703.99476 0 -28516.355)
(-64016.181 -11997.943 0 -274.41991 0 -14836.292)
(-127102.04 -11960.61 0 -698.86717 0 -29492.517)
(-65091.85 -9412.831 0 -268.97295 0 -15083.267)
(-129949.79 -9887.6042 0 -691.86225 0 -30148.073)
(-65463.871 -6844.6054 0 -263.9933 0 -15167.969)
(-131427.11 -7835.1625 0 -688.32941 0 -30488.177)
(-65079.531 -4279.6309 0 -278.14516 0 -15082.541)
(-131544.49 -5825.1585 0 -711.14862 0 -30520.531)
(-63721.544 -1597.8263 0 -406.31323 0 -14798.736)
(-130287.81 -3905.9545 0 -867.55392 0 -30266.622)
(-60543.786 1827.6019 0 -1072.7528 0 -14219.201)
(-127548.91 -2150.3444 0 -1650.1721 0 -29815.172)
(-52553.477 8709.0543 0 -3482.8714 0 -12931.465)
(-122937.91 -349.84866 0 -5132.5647 0 -29554.724)
(-30752.59 27770.262 0 -8239.5519 0 -8998.1867)
(-115757.34 3813.5644 0 -17335.799 0 -30713.802)
(13871.366 74873.268 0 28534.04 0 9785.8629)
(-106634.29 31586.566 0 -45430.013 0 -35091.763)
(-133654.26 131194.87 0 70840.821 0 -14495.409)
(1022258.4 -40970.205 0 31740.849 0 243230.6)
(938283.63 -42989.827 0 2764.6673 0 217164.99)
(861103.99 -43951.667 0 164.318 0 198754.23)
(787567.42 -43265.781 0 -99.702679 0 181723.32)
(716930.94 -42094.506 0 -50.706887 0 165433.9)
(649115.84 -40811.27 0 -27.888921 0 149789.53)
(584109.83 -39507.775 0 -22.434621 0 134789.4)
(521902.78 -38202.596 0 -22.927896 0 120433.81)
(462479.73 -36898.875 0 -25.157858 0 106720.28)
(405823.07 -35597.602 0 -27.968216 0 93645.023)
(351912.57 -34298.802 0 -31.142603 0 81203.406)
(300726.5 -33002.991 0 -34.564734 0 69390.446)
(252241 -31710.078 0 -38.253012 0 58200.635)
(206430.97 -30420.573 0 -42.148919 0 47628.189)
(163269.4 -29134.348 0 -46.276437 0 37666.874)
(122728.16 -27851.909 0 -50.584287 0 28310.21)
(84777.501 -26573.089 0 -55.090123 0 19551.326)
(49386.686 -25298.382 0 -59.747506 0 11383.14)
(16523.621 -24027.575 0 -64.566962 0 3798.2432)
(-13844.593 -22761.145 0 -69.506974 0 -3210.9461)
(-41751.951 -21498.838 0 -74.572361 0 -9652.2746)
(-67233.089 -20241.118 0 -79.726739 0 -15533.727)
(-90323.506 -18987.717 0 -84.973161 0 -20863.495)
(-111059.2 -17739.072 0 -90.270252 0 -25649.877)
(-129476.87 -16494.977 0 -95.642303 0 -29901.348)
(-145613.66 -15255.877 0 -101.05941 0 -33626.473)
(-159507.6 -14022.11 0 -106.69792 0 -36834.068)
(-171197.55 -12794.575 0 -112.65734 0 -39533.126)
(-180722.99 -11573.293 0 -118.97935 0 -41732.762)
(-188121.96 -10356.632 0 -125.30633 0 -43441.676)
(-193429.06 -9141.1956 0 -131.54338 0 -44667.832)
(-196676.39 -7926.5935 0 -140.32239 0 -45419.242)
(-197901.18 -6721.5344 0 -162.94568 0 -45707.107)
(-197162.91 -5559.2342 0 -238.02255 0 -45554.061)
(-194568.83 -4573.57 0 -486.33366 0 -45012.729)
(-190300.47 -4383.8943 0 -1098.6234 0 -44169.022)
(-184331.89 -7688.419 0 -1469.3541 0 -42877.21)
(-174322.1 -23243.823 0 14079.623 0 -36979.034)
(-136720.77 -67291.889 0 112616.11 0 -5562.6133)
)
;

boundaryField
{
    left
    {
        type            calculated;
        value           nonuniform List<symmTensor> 4((-1139204.4 -61222.347 0 -103576.33 0 -286795.55) (-341058.83 -91600.091 0 -102317.65 0 -102317.65) (341001.21 -91596.033 0 102300.36 0 102300.36) (1139146.1 -61215.855 0 103570.96 0 286780.87));
    }
    right
    {
        type            calculated;
        value           nonuniform List<symmTensor> 4((-498.39127 3894.6666 0 -1129815 0 -260841.55) (-167.90991 5827.3306 0 -387190.02 0 -89390.291) (167.91904 5827.2892 0 387172.2 0 89386.182) (498.38837 3894.6209 0 1129820.8 0 260842.88));
    }
    top
    {
        type            calculated;
        value           nonuniform List<symmTensor> 
40
(
(1106156.6 -288.32981 0 159.13503 0 255303.62)
(1257947.4 -552.55503 0 201.05344 0 290341.96)
(1184621.8 -881.63764 0 206.49331 0 273421.92)
(1094080.7 -1226.9034 0 206.26911 0 252527.75)
(999298.06 -1571.1883 0 204.05206 0 230654.33)
(907177.22 -1911.1978 0 201.04207 0 209394.98)
(818647.1 -2245.6125 0 197.42574 0 188964.12)
(733852.14 -2573.4535 0 193.24413 0 169395.09)
(652784.99 -2893.7919 0 188.51622 0 150686.19)
(575421.97 -3205.7272 0 183.26106 0 132831.98)
(501736.65 -3508.3915 0 177.49958 0 115826.34)
(431700.64 -3800.9536 0 171.2545 0 99662.745)
(365283.37 -4082.6218 0 164.55009 0 84334.135)
(302452.07 -4352.6469 0 157.41194 0 69832.958)
(243171.89 -4610.3239 0 149.86681 0 56151.175)
(187405.96 -4854.9942 0 141.94244 0 43280.285)
(135115.56 -5086.0466 0 133.66733 0 31211.36)
(86260.229 -5302.9188 0 125.07058 0 19935.069)
(40797.948 -5505.0981 0 116.18171 0 9441.7223)
(-1314.747 -5692.122 0 107.0304 0 -278.70382)
(-40122.585 -5863.5779 0 97.646422 0 -9236.5243)
(-75671.436 -6019.1037 0 88.059373 0 -17442.318)
(-108008.17 -6158.3867 0 78.298593 0 -24906.892)
(-137180.5 -6281.1633 0 68.392999 0 -31641.255)
(-163236.91 -6387.2178 0 58.370984 0 -37656.586)
(-186226.45 -6476.3816 0 48.260286 0 -42964.197)
(-206198.97 -6548.5305 0 38.088079 0 -47575.587)
(-223206 -6603.5852 0 27.881405 0 -51502.642)
(-237301.36 -6641.5133 0 17.667492 0 -54757.775)
(-248539.35 -6662.3346 0 7.4728729 0 -57353.511)
(-256969.04 -6666.119 0 -2.6793807 0 -59301.165)
(-262628.75 -6652.9703 0 -12.771784 0 -60609.581)
(-265548.14 -6623.0077 0 -22.7894 0 -61285.598)
(-265762.33 -6576.3816 0 -32.712403 0 -61337.318)
(-263396.57 -6513.3299 0 -42.542742 0 -60793.641)
(-259267.06 -6433.8407 0 -52.578427 0 -59842.994)
(-259802.87 -6334.187 0 -65.635504 0 -59969.655)
(-294667.82 -6177.0678 0 -94.931196 0 -68022.173)
(-578279.62 -5789.3459 0 -235.96338 0 -133503.6)
(-1147629.9 -3856.2303 0 -504.90819 0 -264954.19)
)
;
    }
    bottom
    {
        type            calculated;
        value           nonuniform List<symmTensor> 
40
(
(-1106199.9 -288.29553 0 -159.10945 0 -255313.61)
(-1257999 -552.54194 0 -201.02305 0 -290353.84)
(-1184676.9 -881.63446 0 -206.46087 0 -273434.63)
(-1094137.9 -1226.903 0 -206.23551 0 -252540.96)
(-999356.23 -1571.1886 0 -204.01808 0 -230667.75)
(-907235.7 -1911.1984 0 -201.00808 0 -209408.47)
(-818705.54 -2245.6134 0 -197.39199 0 -188977.6)
(-733910.27 -2573.4547 0 -193.21079 0 -169408.49)
(-652842.53 -2893.7933 0 -188.48349 0 -150699.46)
(-575478.66 -3205.729 0 -183.2291 0 -132845.05)
(-501792.25 -3508.3937 0 -177.46856 0 -115839.17)
(-431754.91 -3800.956 0 -171.22456 0 -99675.261)
(-365336.07 -4082.6245 0 -164.52137 0 -84346.291)
(-302503.02 -4352.6499 0 -157.38456 0 -69844.708)
(-243220.88 -4610.3272 0 -149.84089 0 -56162.473)
(-187452.82 -4854.9976 0 -141.91805 0 -43291.093)
(-135160.12 -5086.0502 0 -133.64456 0 -31221.638)
(-86302.363 -5302.9226 0 -125.04948 0 -19944.788)
(-40837.525 -5505.102 0 -116.16233 0 -9450.8509)
(1277.8169 -5692.1259 0 -107.01276 0 270.18557)
(40088.387 -5863.5818 0 -97.630536 0 9228.6362)
(75640.001 -6019.1075 0 -88.045221 0 17435.067)
(107979.49 -6158.3904 0 -78.286135 0 24900.278)
(137154.52 -6281.1667 0 -68.382156 0 31635.262)
(163213.51 -6387.221 0 -58.361654 0 37651.187)
(186205.5 -6476.3844 0 -48.252355 0 42959.365)
(206180.34 -6548.5337 0 -38.081428 0 47571.291)
(223189.07 -6603.5902 0 -27.875667 0 51498.738)
(237284.8 -6641.5199 0 -17.661932 0 54753.954)
(248521.47 -6662.3398 0 -7.4665752 0 57349.385)
(256949.15 -6666.1169 0 2.6868216 0 59296.577)
(262608.67 -6652.9583 0 12.779499 0 60604.95)
(265530.04 -6622.9933 0 22.796331 0 61281.425)
(265746.48 -6576.3778 0 32.718451 0 61333.662)
(263380.37 -6513.3418 0 42.54926 0 60789.905)
(259247.76 -6433.8593 0 52.586847 0 59838.541)
(259782.93 -6334.1957 0 65.644566 0 59965.055)
(294653.87 -6177.064 0 94.93752 0 68018.955)
(578273.81 -5789.3446 0 235.96595 0 133502.26)
(1147626.1 -3856.2448 0 504.91005 0 264953.31)
)
;
    }
    frontAndBack
    {
        type            empty;
    }
}


// ************************************************************************* //
