/*--------------------------------*- C++ -*----------------------------------*\
| =========                 |                                                 |
| \\      /  F ield         | OpenFOAM: The Open Source CFD Toolbox           |
|  \\    /   O peration     | Version:  2512                                  |
|   \\  /    A nd           | Website:  www.openfoam.com                      |
|    \\/     M anipulation  |                                                 |
\*---------------------------------------------------------------------------*/
FoamFile
{
    version     2.0;
    format      ascii;
    arch        "LSB;label=32;scalar=64";
    class       volScalarField;
    location    "0.1";
    object      p;
}
// * * * * * * * * * * * * * * * * * * * * * * * * * * * * * * * * * * * * * //

dimensions      [0 2 -2 0 0 0 0];

internalField   nonuniform List<scalar> 
400
(
-1.96153e-06
-0.00497804
-0.0112443
-0.0159758
-0.0175285
-0.0152063
-0.00895089
0.000841852
0.013447
0.0279046
0.043095
0.0578108
0.0708402
0.0810718
0.0876244
0.0900035
0.088273
0.0832485
0.0767578
0.0717265
0.00488547
-0.000230632
-0.00580762
-0.00961564
-0.0106352
-0.00839948
-0.00286959
0.00563395
0.0165142
0.0289699
0.0420568
0.0547511
0.0660245
0.074936
0.0807445
0.0830368
0.0818534
0.0777707
0.071985
0.0668162
0.0114638
0.00504744
-0.000960494
-0.0045275
-0.00534432
-0.00326387
0.00167013
0.00916255
0.0187037
0.0296168
0.0411001
0.0522763
0.0622544
0.0702077
0.0754682
0.0776328
0.0766478
0.072768
0.0664989
0.0599871
0.0172574
0.008833
0.0014596
-0.00259613
-0.00358261
-0.00166015
0.00300663
0.0100899
0.0191023
0.0294235
0.040323
0.0509917
0.0605892
0.0683088
0.0734592
0.0755614
0.074413
0.069963
0.0622007
0.0535738
0.0206151
0.00996831
0.000897062
-0.00391777
-0.00516247
-0.00326931
0.00146874
0.00866399
0.0178146
0.0283146
0.0394577
0.0504512
0.0604476
0.0685966
0.0741189
0.0764024
0.0750642
0.0697693
0.0601155
0.0490757
0.0203392
0.00742105
-0.00340997
-0.00898492
-0.0103697
-0.00824762
-0.00304112
0.00478907
0.0147068
0.0260961
0.0382474
0.0503519
0.0615168
0.0708035
0.0772946
0.0801961
0.0789072
0.0728023
0.0611346
0.0475252
0.0153463
0.000141497
-0.0123989
-0.0185743
-0.0198249
-0.0170895
-0.0109283
-0.00188469
0.00946041
0.0224701
0.0364183
0.0504636
0.0636443
0.0748996
0.0831286
0.0873003
0.0865391
0.079878
0.0661994
0.0498734
0.00448236
-0.0130158
-0.0271317
-0.0336009
-0.0342854
-0.0304153
-0.0227085
-0.011801
0.0016792
0.0170765
0.0336522
0.0505336
0.066683
0.0808961
0.0918462
0.0982003
0.0987221
0.0919962
0.0764288
0.0572341
-0.0136171
-0.0333938
-0.0488437
-0.0551179
-0.0546088
-0.0489128
-0.0389415
-0.0254336
-0.00905771
0.00953057
0.0296042
0.0502829
0.0704687
0.0888107
0.103723
0.113496
0.116413
0.110433
0.0932803
0.0710954
-0.0406732
-0.0626497
-0.0790112
-0.0843296
-0.0817219
-0.0732769
-0.0601539
-0.0432038
-0.0231158
-0.000507308
0.0239564
0.0494409
0.0748354
0.0986688
0.119083
0.133919
0.140822
0.136861
0.11874
0.0935595
-0.0789659
-0.102905
-0.119424
-0.122581
-0.116545
-0.104093
-0.0867016
-0.0653372
-0.0406694
-0.0132114
0.0165154
0.0478142
0.0796524
0.110513
0.138294
0.160336
0.173465
0.173494
0.155562
0.127663
-0.131673
-0.156975
-0.17227
-0.171308
-0.159852
-0.141645
-0.11856
-0.0916551
-0.0615053
-0.0284162
0.00735748
0.0453945
0.0848887
0.124421
0.161753
0.193734
0.216208
0.223246
0.207609
0.177867
-0.203519
-0.228753
-0.240223
-0.231909
-0.212021
-0.185624
-0.15503
-0.121299
-0.0847766
-0.045404
-0.00299795
0.0424863
0.0906856
0.140517
0.189836
0.235153
0.271248
0.289915
0.280349
0.250885
-0.302123
-0.323894
-0.326507
-0.305455
-0.272615
-0.234701
-0.194357
-0.152418
-0.108755
-0.0627135
-0.0134465
0.0397972
0.0973826
0.158915
0.222755
0.285471
0.340969
0.378337
0.381676
0.357277
-0.44052
-0.450843
-0.434841
-0.392158
-0.33976
-0.28599
-0.233344
-0.181921
-0.130698
-0.0780879
-0.0223059
0.0383809
0.105401
0.179513
0.260228
0.344977
0.427542
0.494392
0.522951
0.514113
-0.639909
-0.621539
-0.568842
-0.49039
-0.409288
-0.334498
-0.267105
-0.205481
-0.147017
-0.0887475
-0.0276426
0.0392776
0.114844
0.201512
0.300853
0.412541
0.531959
0.644248
0.71925
0.747168
-0.934164
-0.851612
-0.728881
-0.593579
-0.472737
-0.372144
-0.288844
-0.217801
-0.153839
-0.0921083
-0.0280879
0.0426106
0.124457
0.222129
0.340358
0.483093
0.650539
0.830876
0.989138
1.09471
-1.42339
-1.16949
-0.901401
-0.679956
-0.511141
-0.384608
-0.288597
-0.212478
-0.147515
-0.0866983
-0.0240808
0.0459536
0.129406
0.233383
0.366737
0.54007
0.763847
1.04363
1.3666
1.66635
-2.48524
-1.63832
-1.044
-0.70352
-0.491981
-0.351138
-0.254176
-0.183199
-0.125701
-0.0730263
-0.0185497
0.0437634
0.120637
0.220935
0.357645
0.549907
0.826137
1.24319
1.92202
2.85178
-4.49094
-2.26505
-1.15052
-0.679654
-0.434756
-0.290084
-0.201475
-0.142735
-0.097889
-0.0573907
-0.0147068
0.0358817
0.100926
0.190009
0.319454
0.51804
0.837721
1.41027
2.63837
4.95994
)
;

boundaryField
{
    movingWall
    {
        type            zeroGradient;
    }
    fixedWalls
    {
        type            zeroGradient;
    }
    frontAndBack
    {
        type            empty;
    }
}


// ************************************************************************* //
