/*--------------------------------*- C++ -*----------------------------------*\
| =========                 |                                                 |
| \\      /  F ield         | OpenFOAM: The Open Source CFD Toolbox           |
|  \\    /   O peration     | Version:  2512                                  |
|   \\  /    A nd           | Website:  www.openfoam.com                      |
|    \\/     M anipulation  |                                                 |
\*---------------------------------------------------------------------------*/
FoamFile
{
    version     2.0;
    format      ascii;
    arch        "LSB;label=32;scalar=64";
    class       surfaceScalarField;
    location    "0.1";
    object      phi;
}
// * * * * * * * * * * * * * * * * * * * * * * * * * * * * * * * * * * * * * //

dimensions      [0 3 -1 0 0 0 0];

oriented        oriented;

internalField   nonuniform List<scalar> 
760
(
6.78199e-09
-6.76549e-09
-3.1593e-08
3.83756e-08
-1.20869e-07
8.92768e-08
-2.46851e-07
1.25983e-07
-3.91208e-07
1.44358e-07
-5.36268e-07
1.4506e-07
-6.66665e-07
1.30398e-07
-7.69976e-07
1.03311e-07
-8.36934e-07
6.69591e-08
-8.61548e-07
2.46146e-08
-8.41256e-07
-2.0292e-08
-7.77167e-07
-6.40884e-08
-6.7434e-07
-1.02827e-07
-5.41977e-07
-1.32362e-07
-3.93381e-07
-1.48596e-07
-2.45435e-07
-1.47945e-07
-1.17362e-07
-1.28073e-07
-2.82806e-08
-8.90807e-08
8.26266e-09
-3.65428e-08
8.26283e-09
-3.71106e-08
3.03454e-08
-1.81611e-07
1.82877e-07
-4.30557e-07
3.38223e-07
-7.54371e-07
4.49797e-07
-1.11434e-06
5.04324e-07
-1.47134e-06
5.02069e-07
-1.7902e-06
4.49254e-07
-2.04178e-06
3.54896e-07
-2.20415e-06
2.2932e-07
-2.26312e-06
8.35924e-08
-2.21287e-06
-7.05408e-08
-2.0564e-06
-2.20562e-07
-1.80601e-06
-3.53217e-07
-1.48348e-06
-4.54889e-07
-1.11957e-06
-5.12503e-07
-7.52395e-07
-5.15124e-07
-4.24091e-07
-4.56377e-07
-1.75073e-07
-3.38098e-07
-3.40302e-08
-1.77585e-07
-2.57671e-08
-9.16451e-08
1.2199e-07
-3.52428e-07
4.43659e-07
-7.5315e-07
7.38946e-07
-1.24828e-06
9.44932e-07
-1.78463e-06
1.04067e-06
-2.30907e-06
1.02652e-06
-2.77363e-06
9.13811e-07
-3.13836e-06
7.19621e-07
-3.37302e-06
4.63988e-07
-3.45814e-06
1.68708e-07
-3.38571e-06
-1.42973e-07
-3.15992e-06
-4.46348e-07
-2.79771e-06
-7.15423e-07
-2.32888e-06
-9.2372e-07
-1.79531e-06
-1.04607e-06
-1.24873e-06
-1.0617e-06
-7.46436e-07
-9.58673e-07
-3.44349e-07
-7.40185e-07
-8.74494e-08
-4.34484e-07
-1.13216e-07
-1.42989e-07
2.6498e-07
-5.17462e-07
8.18133e-07
-1.06469e-06
1.28618e-06
-1.7195e-06
1.59973e-06
-2.41427e-06
1.73545e-06
-3.08454e-06
1.69678e-06
-3.67313e-06
1.5024e-06
-4.13292e-06
1.17942e-06
-4.42839e-06
7.59452e-07
-4.53656e-06
2.76886e-07
-4.44785e-06
-2.31683e-07
-4.16678e-06
-7.27423e-07
-3.71269e-06
-1.16951e-06
-3.12013e-06
-1.51629e-06
-2.43825e-06
-1.72795e-06
-1.72883e-06
-1.77112e-06
-1.06203e-06
-1.62547e-06
-5.09903e-07
-1.29231e-06
-1.38173e-07
-8.06215e-07
-2.51389e-07
-1.90752e-07
4.55731e-07
-6.74975e-07
1.30236e-06
-1.36497e-06
1.97618e-06
-2.17379e-06
2.40855e-06
-3.01842e-06
2.58007e-06
-3.82369e-06
2.50205e-06
-4.52518e-06
2.20389e-06
-5.07084e-06
1.72508e-06
-5.42187e-06
1.11048e-06
-5.5531e-06
4.08113e-07
-5.45353e-06
-3.31253e-07
-5.1271e-06
-1.05386e-06
-4.59367e-06
-1.70294e-06
-3.88999e-06
-2.21996e-06
-3.07e-06
-2.54793e-06
-2.2038e-06
-2.63733e-06
-1.37438e-06
-2.45488e-06
-6.7198e-07
-1.99471e-06
-1.86392e-07
-1.2918e-06
-4.37781e-07
-2.37124e-07
6.92855e-07
-8.29591e-07
1.89482e-06
-1.66085e-06
2.80744e-06
-2.6208e-06
3.3685e-06
-3.61019e-06
3.56946e-06
-4.54358e-06
3.43544e-06
-5.35067e-06
3.01099e-06
-5.9764e-06
2.35081e-06
-6.38035e-06
1.51443e-06
-6.53621e-06
5.6397e-07
-6.43167e-06
-4.35789e-07
-6.06912e-06
-1.41641e-06
-5.46706e-06
-2.305e-06
-4.66203e-06
-3.02499e-06
-3.71048e-06
-3.49948e-06
-2.68945e-06
-3.65837e-06
-1.69508e-06
-3.44925e-06
-8.38008e-07
-2.85179e-06
-2.35245e-07
-1.89457e-06
-6.73026e-07
-2.84489e-07
9.77344e-07
-9.8677e-07
2.5971e-06
-1.95969e-06
3.78036e-06
-3.06845e-06
4.47726e-06
-4.19707e-06
4.69808e-06
-5.25067e-06
4.48904e-06
-6.15493e-06
3.91525e-06
-6.85396e-06
3.04984e-06
-7.30774e-06
1.96821e-06
-7.49007e-06
7.46296e-07
-7.38753e-06
-5.38325e-07
-6.99995e-06
-1.80399e-06
-6.34232e-06
-2.96263e-06
-5.44815e-06
-3.91916e-06
-4.37339e-06
-4.57425e-06
-3.1999e-06
-4.83186e-06
-2.03665e-06
-4.6125e-06
-1.01668e-06
-3.87176e-06
-2.88261e-07
-2.62299e-06
-9.61288e-07
-3.3506e-07
1.3124e-06
-1.1514e-06
3.41345e-06
-2.26709e-06
4.89605e-06
-3.52033e-06
5.7305e-06
-4.77833e-06
5.95608e-06
-5.93862e-06
5.64934e-06
-6.92579e-06
4.90242e-06
-7.68634e-06
3.81038e-06
-8.18343e-06
2.46531e-06
-8.39283e-06
9.55694e-07
-8.30055e-06
-6.3061e-07
-7.90284e-06
-2.20169e-06
-7.20871e-06
-3.65676e-06
-6.2448e-06
-4.88307e-06
-5.06222e-06
-5.75683e-06
-3.74381e-06
-6.15027e-06
-2.40949e-06
-5.94682e-06
-1.21622e-06
-5.06502e-06
-3.48932e-07
-3.49027e-06
-1.31022e-06
-3.91061e-07
1.70347e-06
-1.32778e-06
4.35016e-06
-2.58617e-06
6.15444e-06
-3.97418e-06
7.11851e-06
-5.34293e-06
7.32482e-06
-6.58574e-06
6.89214e-06
-7.63077e-06
5.94746e-06
-8.43169e-06
4.6113e-06
-8.9589e-06
2.99252e-06
-9.19286e-06
1.18965e-06
-9.12011e-06
-7.03361e-07
-8.73253e-06
-2.58926e-06
-8.03022e-06
-4.35908e-06
-7.02805e-06
-5.88524e-06
-5.76591e-06
-7.01897e-06
-4.32114e-06
-7.59505e-06
-2.8201e-06
-7.44786e-06
-1.44386e-06
-6.44126e-06
-4.20778e-07
-4.51335e-06
-1.731e-06
-4.55247e-07
2.15871e-06
-1.52023e-06
5.41514e-06
-2.91758e-06
7.5518e-06
-4.42082e-06
8.62175e-06
-5.86715e-06
8.77115e-06
-7.15158e-06
8.17657e-06
-8.21301e-06
7.00889e-06
-9.01906e-06
5.41734e-06
-9.55286e-06
3.52632e-06
-9.80342e-06
1.44021e-06
-9.75967e-06
-7.47113e-07
-9.40874e-06
-2.94019e-06
-8.73877e-06
-5.02905e-06
-7.74693e-06
-6.87708e-06
-6.45322e-06
-8.31268e-06
-4.91929e-06
-9.12897e-06
-3.26933e-06
-9.09782e-06
-1.70571e-06
-8.00489e-06
-5.07707e-07
-5.71135e-06
-2.23871e-06
-5.31801e-07
2.69051e-06
-1.73427e-06
6.61761e-06
-3.25948e-06
9.07701e-06
-4.84214e-06
1.02044e-05
-6.3108e-06
1.02398e-05
-7.57198e-06
9.43774e-06
-8.58572e-06
8.02264e-06
-9.3426e-06
6.17421e-06
-9.84541e-06
4.02914e-06
-1.00965e-05
1.69128e-06
-1.00899e-05
-7.53723e-07
-9.80835e-06
-3.22171e-06
-9.22556e-06
-5.61184e-06
-8.31458e-06
-7.78806e-06
-7.0647e-06
-9.56256e-06
-5.50739e-06
-1.06863e-05
-3.74966e-06
-1.08556e-05
-2.00654e-06
-9.74801e-06
-6.14587e-07
-7.10331e-06
-2.85329e-06
-6.27694e-07
3.31821e-06
-1.97773e-06
7.96764e-06
-3.60625e-06
1.07055e-05
-5.20666e-06
1.18048e-05
-6.61033e-06
1.16435e-05
-7.75099e-06
1.05784e-05
-8.62418e-06
8.89583e-06
-9.25432e-06
6.80436e-06
-9.6715e-06
4.44631e-06
-9.89646e-06
1.91625e-06
-9.93169e-06
-7.18499e-07
-9.75714e-06
-3.39626e-06
-9.33093e-06
-6.03806e-06
-8.59667e-06
-8.52232e-06
-7.50127e-06
-1.0658e-05
-6.027e-06
-1.21605e-05
-4.24008e-06
-1.26425e-05
-2.34891e-06
-1.16392e-05
-7.48084e-07
-8.70414e-06
-3.60138e-06
-7.54642e-07
4.07285e-06
-2.26095e-06
9.47395e-06
-3.94338e-06
1.2388e-05
-5.45907e-06
1.33205e-05
-6.66536e-06
1.28498e-05
-7.54736e-06
1.14604e-05
-8.15419e-06
9.50266e-06
-8.55543e-06
7.2056e-06
-8.81484e-06
4.70572e-06
-8.9755e-06
2.0769e-06
-9.05142e-06
-6.42581e-07
-9.02271e-06
-3.42496e-06
-8.83383e-06
-6.22695e-06
-8.39714e-06
-8.959e-06
-7.60756e-06
-1.14475e-05
-6.3767e-06
-1.33914e-05
-4.69595e-06
-1.43232e-05
-2.73015e-06
-1.3605e-05
-9.1772e-07
-1.05166e-05
-4.5191e-06
-9.31332e-07
5.00418e-06
-2.59274e-06
1.11354e-05
-4.23243e-06
1.40277e-05
-5.49697e-06
1.4585e-05
-6.31322e-06
1.3666e-05
-6.75203e-06
1.18992e-05
-6.93556e-06
9.68619e-06
-6.98641e-06
7.25645e-06
-7.00364e-06
4.72296e-06
-7.05268e-06
2.12594e-06
-7.16052e-06
-5.34743e-07
-7.31162e-06
-3.27386e-06
-7.44315e-06
-6.09541e-06
-7.44173e-06
-8.96042e-06
-7.14849e-06
-1.17408e-05
-6.38611e-06
-1.41538e-05
-5.02839e-06
-1.56809e-05
-3.13358e-06
-1.54998e-05
-1.13645e-06
-1.25137e-05
-5.65555e-06
-1.18214e-06
6.18632e-06
-2.96189e-06
1.29151e-05
-4.37213e-06
1.54379e-05
-5.12192e-06
1.53348e-05
-5.28258e-06
1.38267e-05
-5.05254e-06
1.16692e-05
-4.64004e-06
9.27369e-06
-4.21767e-06
6.83408e-06
-3.9112e-06
4.41649e-06
-3.80096e-06
2.0157e-06
-3.9245e-06
-4.11208e-07
-4.27523e-06
-2.92313e-06
-4.79506e-06
-5.57558e-06
-5.36177e-06
-8.39372e-06
-5.77723e-06
-1.13253e-05
-5.7724e-06
-1.41586e-05
-5.06194e-06
-1.63914e-05
-3.50308e-06
-1.70586e-05
-1.41592e-06
-1.46008e-05
-7.07147e-06
-1.51782e-06
7.70414e-06
-3.27793e-06
1.46752e-05
-4.10616e-06
1.62661e-05
-3.94276e-06
1.51714e-05
-3.11543e-06
1.29994e-05
-1.98239e-06
1.05361e-05
-8.26847e-07
8.11815e-06
1.54115e-07
5.85312e-06
8.33077e-07
3.73753e-06
1.13284e-06
1.71593e-06
1.01353e-06
-2.91899e-07
4.69377e-07
-2.37897e-06
-4.62989e-07
-4.64322e-06
-1.68329e-06
-7.17342e-06
-2.99458e-06
-1.0014e-05
-4.06923e-06
-1.3084e-05
-4.44977e-06
-1.60109e-05
-3.67706e-06
-1.78314e-05
-1.74094e-06
-1.6537e-05
-8.81241e-06
-1.88467e-06
9.58881e-06
-3.22191e-06
1.60124e-05
-2.82103e-06
1.58653e-05
-1.19957e-06
1.355e-05
9.48399e-07
1.08514e-05
3.13585e-06
8.34867e-06
5.07077e-06
6.18323e-06
6.59154e-06
4.33235e-06
7.61268e-06
2.71639e-06
8.08784e-06
1.24078e-06
7.98855e-06
-1.92612e-07
7.29672e-06
-1.68714e-06
6.01057e-06
-3.35706e-06
4.16812e-06
-5.33097e-06
1.89514e-06
-7.74106e-06
-5.16945e-07
-1.06719e-05
-2.51381e-06
-1.4014e-05
-3.24819e-06
-1.7097e-05
-2.01389e-06
-1.77713e-05
-1.08263e-05
-2.09879e-06
1.16876e-05
-1.85076e-06
1.57644e-05
8.82946e-07
1.31315e-05
4.51545e-06
9.91746e-06
8.09549e-06
7.27134e-06
1.12111e-05
5.23309e-06
1.37103e-05
3.684e-06
1.55566e-05
2.48608e-06
1.67559e-05
1.51705e-06
1.7319e-05
6.7765e-07
1.72426e-05
-1.16153e-07
1.65011e-05
-9.45617e-07
1.50473e-05
-1.9033e-06
1.28254e-05
-3.10906e-06
9.80914e-06
-4.72481e-06
6.09083e-06
-6.95358e-06
2.06589e-06
-9.98906e-06
-1.2314e-06
-1.37997e-05
-1.98516e-06
-1.70175e-05
-1.28115e-05
-8.81171e-07
1.25688e-05
3.89034e-06
1.09929e-05
1.00806e-05
6.94127e-06
1.55577e-05
4.44036e-06
1.99226e-05
2.90643e-06
2.32421e-05
1.91363e-06
2.56704e-05
1.25569e-06
2.7354e-05
8.02435e-07
2.84031e-05
4.68013e-07
2.88841e-05
1.9659e-07
2.88197e-05
-5.1759e-08
2.81862e-05
-3.12079e-07
2.69083e-05
-6.25437e-07
2.48508e-05
-1.05156e-06
2.18143e-05
-1.68823e-06
1.75576e-05
-2.69697e-06
1.19117e-05
-4.34309e-06
5.21663e-06
-7.10464e-06
-3.10192e-07
-1.14907e-05
-1.31216e-05
1.25688e-05
2.35617e-05
3.05029e-05
3.49433e-05
3.78497e-05
3.97634e-05
4.10191e-05
4.18215e-05
4.22895e-05
4.24861e-05
4.24343e-05
4.21223e-05
4.14968e-05
4.04453e-05
3.8757e-05
3.60601e-05
3.1717e-05
2.46123e-05
1.31216e-05
)
;

boundaryField
{
    movingWall
    {
        type            calculated;
        value           uniform 0;
    }
    fixedWalls
    {
        type            calculated;
        value           uniform 0;
    }
    frontAndBack
    {
        type            empty;
    }
}


// ************************************************************************* //
