/*--------------------------------*- C++ -*----------------------------------*\
| =========                 |                                                 |
| \\      /  F ield         | OpenFOAM: The Open Source CFD Toolbox           |
|  \\    /   O peration     | Version:  2512                                  |
|   \\  /    A nd           | Website:  www.openfoam.com                      |
|    \\/     M anipulation  |                                                 |
\*---------------------------------------------------------------------------*/
FoamFile
{
    version     2.0;
    format      ascii;
    arch        "LSB;label=32;scalar=64";
    class       volVectorField;
    location    "0.1";
    object      U;
}
// * * * * * * * * * * * * * * * * * * * * * * * * * * * * * * * * * * * * * //

dimensions      [0 1 -1 0 0 0 0];

internalField   nonuniform List<vector> 
400
(
(0.000185012 -0.000185339 0)
(-5.21346e-05 2.27376e-05 0)
(-0.00135124 0.000277568 0)
(-0.00356556 0.000453464 0)
(-0.00634324 0.000541079 0)
(-0.00930801 0.000551726 0)
(-0.0121229 0.000499311 0)
(-0.0145075 0.000397777 0)
(-0.0162436 0.000260224 0)
(-0.0171778 9.91387e-05 0)
(-0.0172238 -7.27755e-05 0)
(-0.0163659 -0.00024172 0)
(-0.0146652 -0.000392233 0)
(-0.0122643 -0.000507148 0)
(-0.00939002 -0.000568287 0)
(-0.00634839 -0.000558133 0)
(-0.00350976 -0.000462443 0)
(-0.00127588 -0.00027386 0)
(2.54917e-07 -1.00332e-05 0)
(0.000196424 0.000196076 0)
(-3.85385e-06 3.13802e-05 0)
(-0.00170683 0.00171642 0)
(-0.00569659 0.00360173 0)
(-0.0115893 0.00498239 0)
(-0.0186147 0.0056768 0)
(-0.0259612 0.00569417 0)
(-0.0328725 0.00511577 0)
(-0.0386982 0.00405218 0)
(-0.0429232 0.00262559 0)
(-0.0451837 0.000964428 0)
(-0.0452773 -0.000795965 0)
(-0.0431734 -0.00251102 0)
(-0.0390238 -0.00402629 0)
(-0.0331702 -0.00518111 0)
(-0.0261432 -0.00581865 0)
(-0.0186423 -0.00580459 0)
(-0.0114895 -0.00505651 0)
(-0.00554884 -0.00359271 0)
(-0.00159863 -0.00164596 0)
(1.82091e-05 2.67317e-05 0)
(-0.00025514 0.00130494 0)
(-0.00375655 0.00572476 0)
(-0.0104674 0.0100419 0)
(-0.0196779 0.0131271 0)
(-0.0302626 0.0146164 0)
(-0.0411198 0.0145047 0)
(-0.0512248 0.0129581 0)
(-0.0596886 0.0102272 0)
(-0.0658033 0.00660422 0)
(-0.0690675 0.00240558 0)
(-0.0692032 -0.00203179 0)
(-0.0661694 -0.00634925 0)
(-0.0601757 -0.0101685 0)
(-0.051691 -0.0131032 0)
(-0.041439 -0.0147853 0)
(-0.03037 -0.0149108 0)
(-0.0195953 -0.0133082 0)
(-0.0102937 -0.0100387 0)
(-0.0036142 -0.00557597 0)
(-0.00022421 -0.00117282 0)
(-0.00047145 0.00365707 0)
(-0.00573423 0.0120939 0)
(-0.0151057 0.0195507 0)
(-0.0274665 0.0246761 0)
(-0.0413033 0.0269986 0)
(-0.0552573 0.026536 0)
(-0.0681036 0.0235738 0)
(-0.0787911 0.0185422 0)
(-0.086487 0.0119488 0)
(-0.0906027 0.00434747 0)
(-0.0908092 -0.00367042 0)
(-0.0870524 -0.0114768 0)
(-0.0795683 -0.0184121 0)
(-0.0688962 -0.0238055 0)
(-0.0558789 -0.0270203 0)
(-0.0416384 -0.0275309 0)
(-0.0275115 -0.0250334 0)
(-0.0149692 -0.0195945 0)
(-0.00557975 -0.0118674 0)
(-0.000431882 -0.00343065 0)
(-0.000659745 0.00700195 0)
(-0.00759999 0.0206959 0)
(-0.0195664 0.031944 0)
(-0.0349898 0.039344 0)
(-0.0519349 0.0424372 0)
(-0.0687835 0.0413449 0)
(-0.0841398 0.0365284 0)
(-0.0968358 0.0286404 0)
(-0.10596 0.0184377 0)
(-0.110871 0.00674009 0)
(-0.111204 -0.00558086 0)
(-0.106884 -0.0176011 0)
(-0.0981462 -0.0283487 0)
(-0.0855517 -0.0368293 0)
(-0.0700095 -0.0420882 0)
(-0.0527667 -0.0433165 0)
(-0.0353643 -0.0400044 0)
(-0.0195859 -0.0321365 0)
(-0.0074789 -0.0204369 0)
(-0.00061435 -0.00667648 0)
(-0.000838011 0.0112814 0)
(-0.0094218 0.0314639 0)
(-0.0239597 0.0471617 0)
(-0.0424077 0.0570466 0)
(-0.0623816 0.0608045 0)
(-0.0819995 0.0587681 0)
(-0.0997148 0.0516525 0)
(-0.114279 0.0403848 0)
(-0.124739 0.0260014 0)
(-0.130431 0.00960306 0)
(-0.130967 -0.00765216 0)
(-0.126244 -0.0245387 0)
(-0.116462 -0.0397593 0)
(-0.102163 -0.0519675 0)
(-0.084269 -0.059838 0)
(-0.0641128 -0.062199 0)
(-0.0434259 -0.0582283 0)
(-0.0243307 -0.0477031 0)
(-0.00941569 -0.0312941 0)
(-0.000794381 -0.0108823 0)
(-0.00102193 0.0164905 0)
(-0.0112824 0.0444006 0)
(-0.0284194 0.0652021 0)
(-0.0498782 0.0777507 0)
(-0.0728013 0.0820213 0)
(-0.0950464 0.0786884 0)
(-0.114946 0.0688192 0)
(-0.131215 0.0536754 0)
(-0.142904 0.0346005 0)
(-0.14936 0.0129782 0)
(-0.15019 -0.00975953 0)
(-0.145251 -0.0321017 0)
(-0.13468 -0.0524316 0)
(-0.118944 -0.0690327 0)
(-0.0989178 -0.0801554 0)
(-0.075963 -0.084166 0)
(-0.0519725 -0.0797893 0)
(-0.0294237 -0.0664309 0)
(-0.0115164 -0.0445585 0)
(-0.00099364 -0.0160944 0)
(-0.00122585 0.0226715 0)
(-0.0132603 0.0595675 0)
(-0.0330621 0.0860894 0)
(-0.0575053 0.101406 0)
(-0.0832309 0.105955 0)
(-0.107857 0.100916 0)
(-0.129648 0.0878259 0)
(-0.147345 0.0683479 0)
(-0.160068 0.0441542 0)
(-0.167223 0.0168977 0)
(-0.168435 -0.0117519 0)
(-0.163522 -0.0400404 0)
(-0.152517 -0.0660632 0)
(-0.135749 -0.0877348 0)
(-0.11396 -0.102832 0)
(-0.0884514 -0.109146 0)
(-0.0612124 -0.10477 0)
(-0.0350675 -0.088519 0)
(-0.0139068 -0.060452 0)
(-0.00123369 -0.0224315 0)
(-0.00146534 0.0299107 0)
(-0.015433 0.077074 0)
(-0.0379808 0.109845 0)
(-0.0653166 0.127889 0)
(-0.093551 0.132346 0)
(-0.120109 0.125101 0)
(-0.143274 0.108304 0)
(-0.161915 0.0840938 0)
(-0.175311 0.0544809 0)
(-0.182999 0.0213513 0)
(-0.18466 -0.0134526 0)
(-0.180075 -0.0480104 0)
(-0.169142 -0.0801968 0)
(-0.151968 -0.10759 0)
(-0.129047 -0.127462 0)
(-0.101482 -0.136911 0)
(-0.0712358 -0.133178 0)
(-0.0414259 -0.114186 0)
(-0.0167117 -0.0792831 0)
(-0.00153852 -0.0300824 0)
(-0.00176176 0.0383419 0)
(-0.0178934 0.0970652 0)
(-0.0432548 0.136445 0)
(-0.0732538 0.156935 0)
(-0.103449 0.160705 0)
(-0.131165 0.150622 0)
(-0.154845 0.129617 0)
(-0.173632 0.100372 0)
(-0.187091 0.0652307 0)
(-0.194982 0.0262457 0)
(-0.197103 -0.0146698 0)
(-0.193214 -0.0555481 0)
(-0.183043 -0.0941581 0)
(-0.166391 -0.127823 0)
(-0.143351 -0.15332 0)
(-0.114631 -0.166945 0)
(-0.0819581 -0.164831 0)
(-0.048609 -0.143602 0)
(-0.0200627 -0.101423 0)
(-0.00193897 -0.0393094 0)
(-0.00215015 0.0481655 0)
(-0.0207764 0.119717 0)
(-0.0489656 0.165764 0)
(-0.0811531 0.188025 0)
(-0.112359 0.190189 0)
(-0.139981 0.176459 0)
(-0.162838 0.150738 0)
(-0.180549 0.11631 0)
(-0.193123 0.0758089 0)
(-0.200661 0.0313523 0)
(-0.203155 -0.0152195 0)
(-0.200376 -0.062059 0)
(-0.191864 -0.107002 0)
(-0.177027 -0.147265 0)
(-0.155389 -0.179212 0)
(-0.127 -0.198275 0)
(-0.0930337 -0.199198 0)
(-0.0566491 -0.176775 0)
(-0.0241118 -0.127272 0)
(-0.00247983 -0.0504618 0)
(-0.00269255 0.0596912 0)
(-0.0242971 0.145231 0)
(-0.0552026 0.197484 0)
(-0.0886873 0.220239 0)
(-0.119345 0.219427 0)
(-0.144951 0.201031 0)
(-0.165023 0.170124 0)
(-0.179908 0.130605 0)
(-0.190245 0.0853036 0)
(-0.196599 0.0362542 0)
(-0.199233 -0.0149619 0)
(-0.197984 -0.0668285 0)
(-0.192213 -0.117481 0)
(-0.180884 -0.164265 0)
(-0.162786 -0.203314 0)
(-0.137005 -0.229241 0)
(-0.103705 -0.235161 0)
(-0.0654457 -0.213382 0)
(-0.0290461 -0.157202 0)
(-0.00323182 -0.0640056 0)
(-0.00350199 0.073418 0)
(-0.0287937 0.173828 0)
(-0.0620204 0.230939 0)
(-0.0952019 0.252021 0)
(-0.122844 0.246285 0)
(-0.143626 0.222021 0)
(-0.158202 0.1856 0)
(-0.167943 0.141454 0)
(-0.174278 0.0924409 0)
(-0.178328 0.0403044 0)
(-0.180695 -0.0138471 0)
(-0.181339 -0.0690661 0)
(-0.179502 -0.124063 0)
(-0.173717 -0.176635 0)
(-0.16195 -0.223018 0)
(-0.142026 -0.257236 0)
(-0.112529 -0.270687 0)
(-0.0746335 -0.252487 0)
(-0.0350929 -0.191456 0)
(-0.00431315 -0.0805772 0)
(-0.00477973 0.0901474 0)
(-0.0347428 0.205658 0)
(-0.0692487 0.264812 0)
(-0.0993067 0.280813 0)
(-0.120153 0.267588 0)
(-0.132211 0.236214 0)
(-0.137818 0.194307 0)
(-0.139612 0.146577 0)
(-0.139885 0.0956166 0)
(-0.140313 0.0426306 0)
(-0.141841 -0.0119612 0)
(-0.144603 -0.0679983 0)
(-0.147837 -0.125041 0)
(-0.149786 -0.181719 0)
(-0.147668 -0.234866 0)
(-0.137891 -0.278438 0)
(-0.116872 -0.302378 0)
(-0.0832709 -0.292079 0)
(-0.0424654 -0.229916 0)
(-0.00591941 -0.10104 0)
(-0.00681663 0.111079 0)
(-0.0426072 0.240503 0)
(-0.0758908 0.29652 0)
(-0.0979348 0.302487 0)
(-0.10642 0.278792 0)
(-0.104727 0.239442 0)
(-0.0973686 0.192835 0)
(-0.0882969 0.143411 0)
(-0.0805088 0.0930775 0)
(-0.0760508 0.0422332 0)
(-0.0760959 -0.00954927 0)
(-0.0809732 -0.0630212 0)
(-0.0900835 -0.118782 0)
(-0.101689 -0.176648 0)
(-0.112621 -0.234678 0)
(-0.118079 -0.287643 0)
(-0.111971 -0.324922 0)
(-0.0890967 -0.328298 0)
(-0.0510823 -0.271573 0)
(-0.00829751 -0.12647 0)
(-0.00981095 0.138066 0)
(-0.0520917 0.277078 0)
(-0.07849 0.321019 0)
(-0.0843139 0.310495 0)
(-0.0728367 0.273746 0)
(-0.0517126 0.22682 0)
(-0.0276846 0.177688 0)
(-0.00555213 0.129622 0)
(0.0115322 0.08334 0)
(0.0216017 0.0382332 0)
(0.0235258 -0.00698459 0)
(0.0168387 -0.0539115 0)
(0.00178306 -0.104163 0)
(-0.0204007 -0.158927 0)
(-0.0469106 -0.218068 0)
(-0.0725839 -0.278386 0)
(-0.0892574 -0.330505 0)
(-0.0868509 -0.354234 0)
(-0.0596196 -0.313621 0)
(-0.011513 -0.158301 0)
(-0.0137572 0.175096 0)
(-0.0599431 0.311707 0)
(-0.0672106 0.328779 0)
(-0.0439445 0.295002 0)
(-0.00367695 0.245043 0)
(0.0414284 0.19373 0)
(0.0836908 0.146416 0)
(0.118817 0.104103 0)
(0.144542 0.0659332 0)
(0.159683 0.0303121 0)
(0.163557 -0.00466396 0)
(0.155706 -0.0410958 0)
(0.135871 -0.0812634 0)
(0.104256 -0.127512 0)
(0.0622215 -0.181743 0)
(0.0135711 -0.243938 0)
(-0.0335134 -0.308715 0)
(-0.0648595 -0.358355 0)
(-0.0631584 -0.349982 0)
(-0.0153212 -0.199667 0)
(-0.0187313 0.227247 0)
(-0.0534454 0.332735 0)
(-0.0168069 0.303183 0)
(0.0524983 0.244124 0)
(0.127473 0.186981 0)
(0.195611 0.13892 0)
(0.252168 0.100152 0)
(0.295699 0.0687963 0)
(0.326126 0.0425758 0)
(0.343739 0.0193508 0)
(0.348672 -0.00285809 0)
(0.340656 -0.0260437 0)
(0.318942 -0.0524536 0)
(0.282397 -0.0848313 0)
(0.229956 -0.126504 0)
(0.161755 -0.180841 0)
(0.0815306 -0.248988 0)
(0.00190419 -0.323069 0)
(-0.0470509 -0.365264 0)
(-0.0188921 -0.252783 0)
(-0.00226507 0.258744 0)
(0.0195485 0.298277 0)
(0.136142 0.221694 0)
(0.259296 0.153536 0)
(0.359375 0.10509 0)
(0.435855 0.0715495 0)
(0.492711 0.0482006 0)
(0.533324 0.0314442 0)
(0.560297 0.0186988 0)
(0.575412 0.00814811 0)
(0.579576 -0.00158835 0)
(0.572794 -0.011771 0)
(0.554101 -0.023852 0)
(0.521421 -0.0398575 0)
(0.471416 -0.0628867 0)
(0.399379 -0.0976418 0)
(0.299376 -0.150594 0)
(0.169547 -0.227712 0)
(0.0397957 -0.314372 0)
(0.00399891 -0.275076 0)
(0.268732 0.115954 0)
(0.378797 0.100422 0)
(0.540344 0.052804 0)
(0.658925 0.0282054 0)
(0.732523 0.016386 0)
(0.779259 0.0097538 0)
(0.809966 0.00578979 0)
(0.829998 0.00336436 0)
(0.842385 0.00177999 0)
(0.848869 0.000615761 0)
(0.850289 -0.000392448 0)
(0.846757 -0.00145729 0)
(0.837654 -0.00282573 0)
(0.821403 -0.00489089 0)
(0.794969 -0.00834855 0)
(0.752715 -0.0144071 0)
(0.683102 -0.0256726 0)
(0.565474 -0.0500501 0)
(0.397172 -0.0996002 0)
(0.275603 -0.118503 0)
)
;

boundaryField
{
    movingWall
    {
        type            fixedValue;
        value           uniform (1 0 0);
    }
    fixedWalls
    {
        type            noSlip;
    }
    frontAndBack
    {
        type            empty;
    }
}


// ************************************************************************* //
