/*--------------------------------*- C++ -*----------------------------------*\
| =========                 |                                                 |
| \\      /  F ield         | OpenFOAM: The Open Source CFD Toolbox           |
|  \\    /   O peration     | Version:  2512                                  |
|   \\  /    A nd           | Website:  www.openfoam.com                      |
|    \\/     M anipulation  |                                                 |
\*---------------------------------------------------------------------------*/
FoamFile
{
    version     2.0;
    format      ascii;
    arch        "LSB;label=32;scalar=64";
    class       volVectorField;
    location    "0.7";
    object      D;
}
// * * * * * * * * * * * * * * * * * * * * * * * * * * * * * * * * * * * * * //

dimensions      [0 1 0 0 0 0 0];

internalField   nonuniform List<vector> 
160
(
(-8.2332454e-08 -4.3828069e-08 0)
(-2.3494986e-07 -1.8506071e-07 0)
(-3.781396e-07 -4.1914997e-07 0)
(-5.1160535e-07 -7.4378907e-07 0)
(-6.3564427e-07 -1.153442e-06 0)
(-7.5053701e-07 -1.6419508e-06 0)
(-8.5656894e-07 -2.2033038e-06 0)
(-9.540249e-07 -2.8316835e-06 0)
(-1.0431894e-06 -3.5214669e-06 0)
(-1.1243466e-06 -4.2672214e-06 0)
(-1.1977801e-06 -5.0637045e-06 0)
(-1.2637728e-06 -5.9058622e-06 0)
(-1.3226072e-06 -6.7888296e-06 0)
(-1.3745648e-06 -7.7079295e-06 0)
(-1.4199266e-06 -8.6586724e-06 0)
(-1.4589724e-06 -9.636756e-06 0)
(-1.4919814e-06 -1.0638064e-05 0)
(-1.5192319e-06 -1.1658667e-05 0)
(-1.541001e-06 -1.2694819e-05 0)
(-1.5575649e-06 -1.3742961e-05 0)
(-1.5691989e-06 -1.4799716e-05 0)
(-1.5761769e-06 -1.586189e-05 0)
(-1.5787719e-06 -1.6926472e-05 0)
(-1.5772556e-06 -1.7990634e-05 0)
(-1.5718986e-06 -1.9051726e-05 0)
(-1.5629701e-06 -2.010728e-05 0)
(-1.5507384e-06 -2.1155007e-05 0)
(-1.5354702e-06 -2.2192795e-05 0)
(-1.517431e-06 -2.3218712e-05 0)
(-1.4968849e-06 -2.4231001e-05 0)
(-1.4740946e-06 -2.5228079e-05 0)
(-1.4493217e-06 -2.6208541e-05 0)
(-1.4228262e-06 -2.7171153e-05 0)
(-1.3948665e-06 -2.8114859e-05 0)
(-1.3656975e-06 -2.9038786e-05 0)
(-1.3355676e-06 -2.994227e-05 0)
(-1.304709e-06 -3.0824907e-05 0)
(-1.2733318e-06 -3.1686153e-05 0)
(-1.2411872e-06 -3.2522033e-05 0)
(-1.2087802e-06 -3.3285639e-05 0)
(-2.3277471e-08 -1.496462e-08 0)
(-7.5073525e-08 -1.5473705e-07 0)
(-1.2334582e-07 -3.9100833e-07 0)
(-1.6807008e-07 -7.1783771e-07 0)
(-2.0953249e-07 -1.1294301e-06 0)
(-2.4791436e-07 -1.619759e-06 0)
(-2.8333462e-07 -2.1828596e-06 0)
(-3.1589414e-07 -2.8129269e-06 0)
(-3.4568919e-07 -3.5043404e-06 0)
(-3.7281482e-07 -4.2516682e-06 0)
(-3.9736567e-07 -5.0496678e-06 0)
(-4.1943608e-07 -5.8932857e-06 0)
(-4.3912016e-07 -6.7776567e-06 0)
(-4.5651176e-07 -7.6981041e-06 0)
(-4.717045e-07 -8.6501384e-06 0)
(-4.8479168e-07 -9.6294574e-06 0)
(-4.9586635e-07 -1.0631945e-05 0)
(-5.0502121e-07 -1.1653672e-05 0)
(-5.1234866e-07 -1.2690894e-05 0)
(-5.1794077e-07 -1.3740049e-05 0)
(-5.2188923e-07 -1.4797762e-05 0)
(-5.2428538e-07 -1.5860841e-05 0)
(-5.2522019e-07 -1.6926273e-05 0)
(-5.2478424e-07 -1.799123e-05 0)
(-5.230677e-07 -1.9053063e-05 0)
(-5.2016034e-07 -2.0109305e-05 0)
(-5.1615154e-07 -2.1157666e-05 0)
(-5.1113023e-07 -2.2196036e-05 0)
(-5.0518492e-07 -2.3222481e-05 0)
(-4.9840373e-07 -2.4235245e-05 0)
(-4.9087446e-07 -2.5232746e-05 0)
(-4.8268494e-07 -2.6213578e-05 0)
(-4.7392374e-07 -2.7176507e-05 0)
(-4.646829e-07 -2.8120472e-05 0)
(-4.550677e-07 -2.9044576e-05 0)
(-4.4523479e-07 -2.9948049e-05 0)
(-4.3553842e-07 -3.0830042e-05 0)
(-4.2701003e-07 -3.1688741e-05 0)
(-4.2253496e-07 -3.25187e-05 0)
(-4.2419997e-07 -3.3307259e-05 0)
(2.3276601e-08 -1.4964445e-08 0)
(7.5070647e-08 -1.5473674e-07 0)
(1.2334086e-07 -3.9100799e-07 0)
(1.6806304e-07 -7.1783736e-07 0)
(2.0952337e-07 -1.1294297e-06 0)
(2.4790316e-07 -1.6197586e-06 0)
(2.8332133e-07 -2.1828592e-06 0)
(3.1587877e-07 -2.8129266e-06 0)
(3.4567176e-07 -3.5043401e-06 0)
(3.7279536e-07 -4.2516679e-06 0)
(3.973442e-07 -5.0496675e-06 0)
(4.1941264e-07 -5.8932853e-06 0)
(4.390948e-07 -6.7776564e-06 0)
(4.5648454e-07 -7.6981037e-06 0)
(4.7167548e-07 -8.6501381e-06 0)
(4.8476093e-07 -9.6294571e-06 0)
(4.9583394e-07 -1.0631945e-05 0)
(5.0498723e-07 -1.1653672e-05 0)
(5.123132e-07 -1.2690893e-05 0)
(5.1790391e-07 -1.3740049e-05 0)
(5.2185106e-07 -1.4797762e-05 0)
(5.2424601e-07 -1.586084e-05 0)
(5.2517971e-07 -1.6926272e-05 0)
(5.2474275e-07 -1.799123e-05 0)
(5.230253e-07 -1.9053063e-05 0)
(5.2011712e-07 -2.0109305e-05 0)
(5.1610757e-07 -2.1157666e-05 0)
(5.1108557e-07 -2.2196036e-05 0)
(5.0513963e-07 -2.3222481e-05 0)
(4.9835785e-07 -2.4235245e-05 0)
(4.9082805e-07 -2.5232746e-05 0)
(4.8263796e-07 -2.6213578e-05 0)
(4.7387612e-07 -2.7176507e-05 0)
(4.6463451e-07 -2.8120471e-05 0)
(4.5501853e-07 -2.9044576e-05 0)
(4.4518493e-07 -2.9948049e-05 0)
(4.3548811e-07 -3.0830042e-05 0)
(4.2695947e-07 -3.1688741e-05 0)
(4.2248418e-07 -3.25187e-05 0)
(4.2414905e-07 -3.3307259e-05 0)
(8.2331514e-08 -4.3827482e-08 0)
(2.349471e-07 -1.8505981e-07 0)
(3.7813497e-07 -4.1914899e-07 0)
(5.1159881e-07 -7.4378808e-07 0)
(6.3563581e-07 -1.1534411e-06 0)
(7.5052659e-07 -1.6419499e-06 0)
(8.5655657e-07 -2.2033028e-06 0)
(9.5401058e-07 -2.8316826e-06 0)
(1.0431732e-06 -3.5214659e-06 0)
(1.1243284e-06 -4.2672205e-06 0)
(1.19776e-06 -5.0637035e-06 0)
(1.2637509e-06 -5.9058613e-06 0)
(1.3225835e-06 -6.7888287e-06 0)
(1.3745393e-06 -7.7079286e-06 0)
(1.4198993e-06 -8.6586716e-06 0)
(1.4589435e-06 -9.6367552e-06 0)
(1.491951e-06 -1.0638063e-05 0)
(1.5192e-06 -1.1658666e-05 0)
(1.5409677e-06 -1.2694819e-05 0)
(1.5575303e-06 -1.374296e-05 0)
(1.569163e-06 -1.4799715e-05 0)
(1.5761399e-06 -1.5861889e-05 0)
(1.5787338e-06 -1.6926471e-05 0)
(1.5772165e-06 -1.7990633e-05 0)
(1.5718586e-06 -1.9051725e-05 0)
(1.5629294e-06 -2.0107279e-05 0)
(1.550697e-06 -2.1155006e-05 0)
(1.5354281e-06 -2.2192795e-05 0)
(1.5173883e-06 -2.3218712e-05 0)
(1.4968415e-06 -2.4231001e-05 0)
(1.4740507e-06 -2.5228079e-05 0)
(1.4492771e-06 -2.6208541e-05 0)
(1.4227809e-06 -2.7171153e-05 0)
(1.3948205e-06 -2.8114859e-05 0)
(1.3656508e-06 -2.9038785e-05 0)
(1.3355202e-06 -2.994227e-05 0)
(1.304661e-06 -3.0824907e-05 0)
(1.2732832e-06 -3.1686153e-05 0)
(1.2411384e-06 -3.2522033e-05 0)
(1.2087311e-06 -3.328564e-05 0)
)
;

boundaryField
{
    left
    {
        nonOrthogonalCorrections true;
        type            fixedDisplacement;
        value           uniform (0 0 0);
    }
    right
    {
        type            solidTraction;
        nonOrthogonalCorrections true;
        useUndeformedArea false;
        traction        uniform (0 0 0);
        pressure        uniform 0;
        secondOrder     false;
        extrapolateValue false;
        setEffectiveTraction false;
        relaxationFactor 1;
        value           nonuniform List<vector> 4((-1.1748385e-06 -3.3549743e-05 0) (-4.12644e-07 -3.3703857e-05 0) (4.1259318e-07 -3.3703857e-05 0) (1.1747893e-06 -3.3549744e-05 0));
        gradient        nonuniform List<vector> 4((2.7153359e-06 -2.1128286e-05 0) (9.2447749e-07 -3.1727839e-05 0) (-9.2447015e-07 -3.1727872e-05 0) (-2.7153383e-06 -2.1128323e-05 0));
    }
    top
    {
        type            solidTraction;
        nonOrthogonalCorrections true;
        useUndeformedArea false;
        traction        uniform (0 0 0);
        pressure        uniform 0;
        secondOrder     false;
        extrapolateValue false;
        setEffectiveTraction false;
        relaxationFactor 1;
        value           nonuniform List<vector> 
40
(
(1.3573291e-07 -6.8531386e-08 0)
(3.2941734e-07 -2.1365519e-07 0)
(5.1704496e-07 -4.4650737e-07 0)
(6.942372e-07 -7.6944679e-07 0)
(8.5920256e-07 -1.177272e-06 0)
(1.0120247e-06 -1.6639843e-06 0)
(1.1530355e-06 -2.2235938e-06 0)
(1.2826113e-06 -2.8502869e-06 0)
(1.4011321e-06 -3.5384405e-06 0)
(1.5089771e-06 -4.2826221e-06 0)
(1.6065245e-06 -5.0775889e-06 0)
(1.694152e-06 -5.918287e-06 0)
(1.7722358e-06 -6.7998511e-06 0)
(1.8411518e-06 -7.717604e-06 0)
(1.9012743e-06 -8.6670561e-06 0)
(1.9529768e-06 -9.6439048e-06 0)
(1.9966316e-06 -1.0644034e-05 0)
(2.0326095e-06 -1.1663513e-05 0)
(2.0612805e-06 -1.2698597e-05 0)
(2.0830126e-06 -1.3745726e-05 0)
(2.098173e-06 -1.4801522e-05 0)
(2.1071269e-06 -1.5862792e-05 0)
(2.1102384e-06 -1.6926526e-05 0)
(2.1078698e-06 -1.7989893e-05 0)
(2.1003819e-06 -1.9050244e-05 0)
(2.0881339e-06 -2.0105111e-05 0)
(2.0714832e-06 -2.1152205e-05 0)
(2.0507856e-06 -2.2189413e-05 0)
(2.0263951e-06 -2.3214803e-05 0)
(1.9986638e-06 -2.4226617e-05 0)
(1.9679418e-06 -2.5223273e-05 0)
(1.9345779e-06 -2.6203365e-05 0)
(1.8989199e-06 -2.7165659e-05 0)
(1.8613155e-06 -2.8109099e-05 0)
(1.8221123e-06 -2.9032809e-05 0)
(1.7816283e-06 -2.9936105e-05 0)
(1.7399075e-06 -3.0818389e-05 0)
(1.6947011e-06 -3.1678221e-05 0)
(1.6341242e-06 -3.2505162e-05 0)
(1.4697043e-06 -3.3251197e-05 0)
)
;
        gradient        nonuniform List<vector> 
40
(
(4.272112e-06 -1.9763123e-06 0)
(7.5576191e-06 -2.28763e-06 0)
(1.1112799e-05 -2.1886702e-06 0)
(1.4611071e-05 -2.0526967e-06 0)
(1.788534e-05 -1.9064786e-06 0)
(2.0919851e-05 -1.7627541e-06 0)
(2.3718311e-05 -1.62328e-06 0)
(2.6288057e-05 -1.4883449e-06 0)
(2.8636715e-05 -1.357965e-06 0)
(3.0771892e-05 -1.2321309e-06 0)
(3.2701164e-05 -1.1108318e-06 0)
(3.4432085e-05 -9.9405726e-07 0)
(3.597219e-05 -8.8179592e-07 0)
(3.7328996e-05 -7.7403571e-07 0)
(3.8509996e-05 -6.7076371e-07 0)
(3.9522663e-05 -5.7196615e-07 0)
(4.0374445e-05 -4.7762849e-07 0)
(4.1072766e-05 -3.8773539e-07 0)
(4.1625023e-05 -3.0227084e-07 0)
(4.2038585e-05 -2.2121813e-07 0)
(4.2320794e-05 -1.4455992e-07 0)
(4.2478961e-05 -7.2278312e-08 0)
(4.2520367e-05 -4.3548541e-09 0)
(4.2452262e-05 5.9229395e-08 0)
(4.2281864e-05 1.1849383e-07 0)
(4.2016358e-05 1.7345824e-07 0)
(4.1662898e-05 2.2414289e-07 0)
(4.1228601e-05 2.7056894e-07 0)
(4.0720549e-05 3.1275861e-07 0)
(4.0145781e-05 3.5073452e-07 0)
(3.9511295e-05 3.8451699e-07 0)
(3.8824069e-05 4.1412052e-07 0)
(3.8091118e-05 4.3955043e-07 0)
(3.7319601e-05 4.608083e-07 0)
(3.6516925e-05 4.7807328e-07 0)
(3.568865e-05 4.9316583e-07 0)
(3.4819725e-05 5.2148363e-07 0)
(3.3713428e-05 6.3458326e-07 0)
(3.1438863e-05 1.3496864e-06 0)
(2.0877863e-05 2.7553784e-06 0)
)
;
    }
    bottom
    {
        type            solidTraction;
        nonOrthogonalCorrections true;
        useUndeformedArea false;
        traction        uniform (0 0 0);
        pressure        uniform 0;
        secondOrder     false;
        extrapolateValue false;
        setEffectiveTraction false;
        relaxationFactor 1;
        value           nonuniform List<vector> 
40
(
(-1.3573414e-07 -6.8532189e-08 0)
(-3.2942021e-07 -2.1365634e-07 0)
(-5.1704962e-07 -4.4650862e-07 0)
(-6.9424374e-07 -7.6944806e-07 0)
(-8.5921103e-07 -1.1772733e-06 0)
(-1.0120352e-06 -1.6639856e-06 0)
(-1.1530478e-06 -2.2235951e-06 0)
(-1.2826256e-06 -2.8502881e-06 0)
(-1.4011483e-06 -3.5384418e-06 0)
(-1.5089952e-06 -4.2826234e-06 0)
(-1.6065446e-06 -5.0775901e-06 0)
(-1.6941739e-06 -5.9182882e-06 0)
(-1.7722596e-06 -6.7998523e-06 0)
(-1.8411773e-06 -7.7176052e-06 0)
(-1.9013015e-06 -8.6670572e-06 0)
(-1.9530056e-06 -9.6439058e-06 0)
(-1.9966619e-06 -1.0644035e-05 0)
(-2.0326414e-06 -1.1663514e-05 0)
(-2.0613137e-06 -1.2698598e-05 0)
(-2.0830472e-06 -1.3745726e-05 0)
(-2.0982088e-06 -1.4801523e-05 0)
(-2.1071639e-06 -1.5862793e-05 0)
(-2.1102765e-06 -1.6926527e-05 0)
(-2.1079088e-06 -1.7989893e-05 0)
(-2.1004218e-06 -1.9050245e-05 0)
(-2.0881746e-06 -2.0105112e-05 0)
(-2.0715246e-06 -2.1152205e-05 0)
(-2.0508277e-06 -2.2189413e-05 0)
(-2.0264378e-06 -2.3214803e-05 0)
(-1.9987071e-06 -2.4226617e-05 0)
(-1.9679858e-06 -2.5223273e-05 0)
(-1.9346226e-06 -2.6203365e-05 0)
(-1.8989653e-06 -2.7165659e-05 0)
(-1.8613615e-06 -2.8109099e-05 0)
(-1.8221589e-06 -2.903281e-05 0)
(-1.7816755e-06 -2.9936105e-05 0)
(-1.7399555e-06 -3.0818388e-05 0)
(-1.6947496e-06 -3.1678221e-05 0)
(-1.634173e-06 -3.2505162e-05 0)
(-1.4697533e-06 -3.3251197e-05 0)
)
;
        gradient        nonuniform List<vector> 
40
(
(-4.2721352e-06 -1.9763296e-06 0)
(-7.557628e-06 -2.2876506e-06 0)
(-1.1112801e-05 -2.1886922e-06 0)
(-1.4611072e-05 -2.0527196e-06 0)
(-1.788534e-05 -1.9065019e-06 0)
(-2.0919851e-05 -1.7627776e-06 0)
(-2.3718311e-05 -1.6233034e-06 0)
(-2.6288057e-05 -1.4883683e-06 0)
(-2.8636715e-05 -1.3579882e-06 0)
(-3.0771891e-05 -1.2321538e-06 0)
(-3.2701163e-05 -1.1108543e-06 0)
(-3.4432084e-05 -9.9407928e-07 0)
(-3.5972189e-05 -8.8181735e-07 0)
(-3.7328994e-05 -7.7405649e-07 0)
(-3.8509994e-05 -6.7078375e-07 0)
(-3.9522661e-05 -5.7198539e-07 0)
(-4.0374443e-05 -4.7764685e-07 0)
(-4.1072764e-05 -3.8775283e-07 0)
(-4.1625021e-05 -3.0228729e-07 0)
(-4.2038583e-05 -2.2123354e-07 0)
(-4.2320792e-05 -1.4457427e-07 0)
(-4.2478958e-05 -7.2291575e-08 0)
(-4.2520365e-05 -4.3670241e-09 0)
(-4.245226e-05 5.9218295e-08 0)
(-4.2281862e-05 1.1848376e-07 0)
(-4.2016356e-05 1.7344916e-07 0)
(-4.1662895e-05 2.2413476e-07 0)
(-4.1228597e-05 2.7056149e-07 0)
(-4.0720544e-05 3.1275132e-07 0)
(-4.0145777e-05 3.5072669e-07 0)
(-3.9511297e-05 3.8450836e-07 0)
(-3.8824079e-05 4.1411184e-07 0)
(-3.8091129e-05 4.395426e-07 0)
(-3.7319603e-05 4.6080144e-07 0)
(-3.6516915e-05 4.7806632e-07 0)
(-3.5688634e-05 4.9315765e-07 0)
(-3.4819717e-05 5.2147523e-07 0)
(-3.371343e-05 6.3457738e-07 0)
(-3.1438864e-05 1.349684e-06 0)
(-2.0877852e-05 2.7553768e-06 0)
)
;
    }
    frontAndBack
    {
        type            empty;
    }
}


// ************************************************************************* //
