/*--------------------------------*- C++ -*----------------------------------*\
| =========                 |                                                 |
| \\      /  F ield         | OpenFOAM: The Open Source CFD Toolbox           |
|  \\    /   O peration     | Version:  2512                                  |
|   \\  /    A nd           | Website:  www.openfoam.com                      |
|    \\/     M anipulation  |                                                 |
\*---------------------------------------------------------------------------*/
FoamFile
{
    version     2.0;
    format      ascii;
    arch        "LSB;label=32;scalar=64";
    class       volVectorField;
    location    "0.7";
    object      D_0;
}
// * * * * * * * * * * * * * * * * * * * * * * * * * * * * * * * * * * * * * //

dimensions      [0 1 0 0 0 0 0];

internalField   nonuniform List<vector> 
160
(
(-8.0466148e-08 -4.3112524e-08 0)
(-2.2936931e-07 -1.8168951e-07 0)
(-3.6884689e-07 -4.1076892e-07 0)
(-4.9862467e-07 -7.279334e-07 0)
(-6.1900965e-07 -1.1276471e-06 0)
(-7.3029222e-07 -1.6037779e-06 0)
(-8.3276729e-07 -2.1503469e-06 0)
(-9.2672907e-07 -2.7615761e-06 0)
(-1.0124713e-06 -3.4318873e-06 0)
(-1.090287e-06 -4.1558996e-06 0)
(-1.1604687e-06 -4.9284273e-06 0)
(-1.2233078e-06 -5.7444798e-06 0)
(-1.279095e-06 -6.5992607e-06 0)
(-1.32812e-06 -7.488167e-06 0)
(-1.3706712e-06 -8.4067887e-06 0)
(-1.4070361e-06 -9.3509078e-06 0)
(-1.4375008e-06 -1.0316498e-05 0)
(-1.4623502e-06 -1.1299722e-05 0)
(-1.4818679e-06 -1.2296935e-05 0)
(-1.4963359e-06 -1.3304678e-05 0)
(-1.5060349e-06 -1.431968e-05 0)
(-1.5112441e-06 -1.5338859e-05 0)
(-1.512241e-06 -1.6359317e-05 0)
(-1.5093015e-06 -1.7378339e-05 0)
(-1.5026999e-06 -1.8393396e-05 0)
(-1.4927089e-06 -1.9402141e-05 0)
(-1.4795993e-06 -2.0402408e-05 0)
(-1.4636401e-06 -2.139221e-05 0)
(-1.4450987e-06 -2.236974e-05 0)
(-1.4242405e-06 -2.3333368e-05 0)
(-1.4013288e-06 -2.4281641e-05 0)
(-1.3766256e-06 -2.5213279e-05 0)
(-1.3503908e-06 -2.6127179e-05 0)
(-1.3228822e-06 -2.702241e-05 0)
(-1.2943538e-06 -2.7898227e-05 0)
(-1.2650528e-06 -2.875409e-05 0)
(-1.2352102e-06 -2.9589714e-05 0)
(-1.2050351e-06 -3.0404685e-05 0)
(-1.1743015e-06 -3.1195354e-05 0)
(-1.1434898e-06 -3.1917482e-05 0)
(-2.2723607e-08 -1.4953353e-08 0)
(-7.3243395e-08 -1.5213544e-07 0)
(-1.2026301e-07 -3.8337774e-07 0)
(-1.6375495e-07 -7.0271745e-07 0)
(-2.0400056e-07 -1.1043602e-06 0)
(-2.4118133e-07 -1.5823007e-06 0)
(-2.7541851e-07 -2.1306058e-06 0)
(-3.0681588e-07 -2.7435091e-06 0)
(-3.3547272e-07 -3.4154353e-06 0)
(-3.6148704e-07 -4.1410038e-06 0)
(-3.8495639e-07 -4.9150294e-06 0)
(-4.0597796e-07 -5.7325215e-06 0)
(-4.2464862e-07 -6.588684e-06 0)
(-4.4106487e-07 -7.4789142e-06 0)
(-4.553229e-07 -8.3988022e-06 0)
(-4.6751846e-07 -9.3441302e-06 0)
(-4.7774694e-07 -1.0310872e-05 0)
(-4.8610327e-07 -1.1295192e-05 0)
(-4.9268195e-07 -1.2293443e-05 0)
(-4.9757699e-07 -1.3302168e-05 0)
(-5.0088194e-07 -1.4318097e-05 0)
(-5.0268982e-07 -1.5338146e-05 0)
(-5.0309314e-07 -1.6359419e-05 0)
(-5.0218387e-07 -1.7379201e-05 0)
(-5.0005344e-07 -1.8394964e-05 0)
(-4.967927e-07 -1.940436e-05 0)
(-4.9249194e-07 -2.0405224e-05 0)
(-4.8724087e-07 -2.1395569e-05 0)
(-4.8112857e-07 -2.237359e-05 0)
(-4.7424359e-07 -2.3337655e-05 0)
(-4.6667399e-07 -2.4286313e-05 0)
(-4.5850765e-07 -2.5218283e-05 0)
(-4.4983304e-07 -2.6132462e-05 0)
(-4.407417e-07 -2.7027914e-05 0)
(-4.3133748e-07 -2.7903873e-05 0)
(-4.2177259e-07 -2.8759698e-05 0)
(-4.1238594e-07 -2.9594682e-05 0)
(-4.0415651e-07 -3.0407215e-05 0)
(-3.9981556e-07 -3.119226e-05 0)
(-4.0133586e-07 -3.1937986e-05 0)
(2.2722401e-08 -1.495311e-08 0)
(7.3239407e-08 -1.5213501e-07 0)
(1.2025614e-07 -3.8337726e-07 0)
(1.637452e-07 -7.0271697e-07 0)
(2.0398792e-07 -1.1043597e-06 0)
(2.411658e-07 -1.5823003e-06 0)
(2.7540009e-07 -2.1306053e-06 0)
(3.0679459e-07 -2.7435086e-06 0)
(3.3544857e-07 -3.4154348e-06 0)
(3.6146007e-07 -4.1410033e-06 0)
(3.8492664e-07 -4.9150289e-06 0)
(4.0594549e-07 -5.7325211e-06 0)
(4.2461348e-07 -6.5886836e-06 0)
(4.4102716e-07 -7.4789138e-06 0)
(4.5528269e-07 -8.3988017e-06 0)
(4.6747586e-07 -9.3441298e-06 0)
(4.7770204e-07 -1.0310872e-05 0)
(4.8605619e-07 -1.1295191e-05 0)
(4.926328e-07 -1.2293442e-05 0)
(4.9752592e-07 -1.3302167e-05 0)
(5.0082906e-07 -1.4318096e-05 0)
(5.0263527e-07 -1.5338146e-05 0)
(5.0303706e-07 -1.6359418e-05 0)
(5.0212639e-07 -1.7379201e-05 0)
(4.999947e-07 -1.8394964e-05 0)
(4.9673281e-07 -1.940436e-05 0)
(4.9243102e-07 -2.0405224e-05 0)
(4.8717899e-07 -2.1395569e-05 0)
(4.8106582e-07 -2.2373589e-05 0)
(4.7418004e-07 -2.3337655e-05 0)
(4.6660969e-07 -2.4286313e-05 0)
(4.5844258e-07 -2.5218283e-05 0)
(4.4976707e-07 -2.6132462e-05 0)
(4.4067467e-07 -2.7027914e-05 0)
(4.3126935e-07 -2.7903873e-05 0)
(4.2170352e-07 -2.8759698e-05 0)
(4.1231624e-07 -2.9594683e-05 0)
(4.0408646e-07 -3.0407215e-05 0)
(3.9974521e-07 -3.119226e-05 0)
(4.0126532e-07 -3.1937987e-05 0)
(8.0464845e-08 -4.311171e-08 0)
(2.2936548e-07 -1.8168828e-07 0)
(3.6884048e-07 -4.1076757e-07 0)
(4.9861562e-07 -7.2793204e-07 0)
(6.1899792e-07 -1.1276458e-06 0)
(7.3027779e-07 -1.6037765e-06 0)
(8.3275015e-07 -2.1503455e-06 0)
(9.2670922e-07 -2.7615747e-06 0)
(1.0124487e-06 -3.431886e-06 0)
(1.0902618e-06 -4.1558982e-06 0)
(1.1604408e-06 -4.928426e-06 0)
(1.2232774e-06 -5.7444785e-06 0)
(1.2790621e-06 -6.5992594e-06 0)
(1.3280846e-06 -7.4881658e-06 0)
(1.3706335e-06 -8.4067875e-06 0)
(1.4069961e-06 -9.3509067e-06 0)
(1.4374586e-06 -1.0316497e-05 0)
(1.462306e-06 -1.1299721e-05 0)
(1.4818217e-06 -1.2296934e-05 0)
(1.4962879e-06 -1.3304677e-05 0)
(1.5059852e-06 -1.431968e-05 0)
(1.5111928e-06 -1.5338859e-05 0)
(1.5121882e-06 -1.6359316e-05 0)
(1.5092473e-06 -1.7378338e-05 0)
(1.5026446e-06 -1.8393396e-05 0)
(1.4926525e-06 -1.9402141e-05 0)
(1.4795418e-06 -2.0402407e-05 0)
(1.4635818e-06 -2.1392209e-05 0)
(1.4450396e-06 -2.2369739e-05 0)
(1.4241805e-06 -2.3333368e-05 0)
(1.401268e-06 -2.4281641e-05 0)
(1.3765638e-06 -2.5213279e-05 0)
(1.350328e-06 -2.6127178e-05 0)
(1.3228185e-06 -2.7022409e-05 0)
(1.2942891e-06 -2.7898226e-05 0)
(1.2649872e-06 -2.875409e-05 0)
(1.2351437e-06 -2.9589714e-05 0)
(1.2049679e-06 -3.0404686e-05 0)
(1.1742338e-06 -3.1195355e-05 0)
(1.1434218e-06 -3.1917483e-05 0)
)
;

boundaryField
{
    left
    {
        nonOrthogonalCorrections true;
        type            fixedDisplacement;
        value           uniform (0 0 0);
    }
    right
    {
        type            solidTraction;
        nonOrthogonalCorrections true;
        useUndeformedArea false;
        traction        uniform (0 0 0);
        pressure        uniform 0;
        secondOrder     false;
        extrapolateValue false;
        setEffectiveTraction false;
        relaxationFactor 1;
        value           nonuniform List<vector> 4((-1.1113893e-06 -3.2167195e-05 0) (-3.9039982e-07 -3.2313056e-05 0) (3.9032941e-07 -3.2313057e-05 0) (1.1113212e-06 -3.2167195e-05 0));
        gradient        uniform (0 0 0);
    }
    top
    {
        type            solidTraction;
        nonOrthogonalCorrections true;
        useUndeformedArea false;
        traction        uniform (0 0 0);
        pressure        uniform 0;
        secondOrder     false;
        extrapolateValue false;
        setEffectiveTraction false;
        relaxationFactor 1;
        value           nonuniform List<vector> 
40
(
(1.3283938e-07 -6.7248472e-08 0)
(3.2186777e-07 -2.0956686e-07 0)
(5.0460979e-07 -4.3738932e-07 0)
(6.7688197e-07 -7.5285425e-07 0)
(8.3696343e-07 -1.1507473e-06 0)
(9.8495901e-07 -1.6250911e-06 0)
(1.1212144e-06 -2.1699284e-06 0)
(1.2461187e-06 -2.7794844e-06 0)
(1.360064e-06 -3.4481812e-06 0)
(1.4634416e-06 -4.1706377e-06 0)
(1.5566416e-06 -4.9416681e-06 0)
(1.6400528e-06 -5.7562815e-06 0)
(1.7140627e-06 -6.6096813e-06 0)
(1.7790578e-06 -7.4972644e-06 0)
(1.8354228e-06 -8.4146205e-06 0)
(1.883541e-06 -9.3575315e-06 0)
(1.9237941e-06 -1.032197e-05 0)
(1.956562e-06 -1.1304101e-05 0)
(1.9822227e-06 -1.2300276e-05 0)
(2.0011527e-06 -1.3307037e-05 0)
(2.0137261e-06 -1.4321115e-05 0)
(2.0203151e-06 -1.5339424e-05 0)
(2.02129e-06 -1.6359067e-05 0)
(2.0170186e-06 -1.737733e-05 0)
(2.0078668e-06 -1.8391683e-05 0)
(1.994198e-06 -1.9399778e-05 0)
(1.9763735e-06 -2.0399448e-05 0)
(1.9547522e-06 -2.1388707e-05 0)
(1.9296903e-06 -2.2365748e-05 0)
(1.9015415e-06 -2.332894e-05 0)
(1.8706571e-06 -2.4276829e-05 0)
(1.8373859e-06 -2.5208136e-05 0)
(1.8020757e-06 -2.6121755e-05 0)
(1.7650736e-06 -2.7016759e-05 0)
(1.7267255e-06 -2.7892398e-05 0)
(1.6873486e-06 -2.8748112e-05 0)
(1.6469995e-06 -2.9583432e-05 0)
(1.6035665e-06 -3.03971e-05 0)
(1.5458274e-06 -3.1179353e-05 0)
(1.390144e-06 -3.1884905e-05 0)
)
;
        gradient        uniform (0 0 0);
    }
    bottom
    {
        type            solidTraction;
        nonOrthogonalCorrections true;
        useUndeformedArea false;
        traction        uniform (0 0 0);
        pressure        uniform 0;
        secondOrder     false;
        extrapolateValue false;
        setEffectiveTraction false;
        relaxationFactor 1;
        value           nonuniform List<vector> 
40
(
(-1.3284108e-07 -6.7249585e-08 0)
(-3.2187175e-07 -2.0956846e-07 0)
(-5.0461624e-07 -4.3739105e-07 0)
(-6.7689103e-07 -7.5285601e-07 0)
(-8.3697516e-07 -1.1507491e-06 0)
(-9.8497345e-07 -1.6250929e-06 0)
(-1.1212315e-06 -2.1699301e-06 0)
(-1.2461385e-06 -2.7794861e-06 0)
(-1.3600865e-06 -3.448183e-06 0)
(-1.4634668e-06 -4.1706394e-06 0)
(-1.5566694e-06 -4.9416698e-06 0)
(-1.6400831e-06 -5.7562831e-06 0)
(-1.7140956e-06 -6.6096829e-06 0)
(-1.7790931e-06 -7.497266e-06 0)
(-1.8354605e-06 -8.4146221e-06 0)
(-1.8835809e-06 -9.3575329e-06 0)
(-1.9238362e-06 -1.0321972e-05 0)
(-1.9566061e-06 -1.1304102e-05 0)
(-1.9822689e-06 -1.2300277e-05 0)
(-2.0012007e-06 -1.3307038e-05 0)
(-2.0137758e-06 -1.4321116e-05 0)
(-2.0203664e-06 -1.5339425e-05 0)
(-2.0213427e-06 -1.6359068e-05 0)
(-2.0170727e-06 -1.7377331e-05 0)
(-2.0079221e-06 -1.8391684e-05 0)
(-1.9942544e-06 -1.9399778e-05 0)
(-1.9764309e-06 -2.0399449e-05 0)
(-1.9548105e-06 -2.1388708e-05 0)
(-1.9297494e-06 -2.2365748e-05 0)
(-1.9016015e-06 -2.332894e-05 0)
(-1.870718e-06 -2.4276829e-05 0)
(-1.8374479e-06 -2.5208136e-05 0)
(-1.8021386e-06 -2.6121756e-05 0)
(-1.7651373e-06 -2.701676e-05 0)
(-1.72679e-06 -2.7892398e-05 0)
(-1.6874139e-06 -2.8748112e-05 0)
(-1.6470659e-06 -2.9583432e-05 0)
(-1.6036338e-06 -3.0397099e-05 0)
(-1.5458951e-06 -3.1179353e-05 0)
(-1.3902118e-06 -3.1884905e-05 0)
)
;
        gradient        uniform (0 0 0);
    }
    frontAndBack
    {
        type            empty;
    }
}


// ************************************************************************* //
