/*--------------------------------*- C++ -*----------------------------------*\
| =========                 |                                                 |
| \\      /  F ield         | OpenFOAM: The Open Source CFD Toolbox           |
|  \\    /   O peration     | Version:  2512                                  |
|   \\  /    A nd           | Website:  www.openfoam.com                      |
|    \\/     M anipulation  |                                                 |
\*---------------------------------------------------------------------------*/
FoamFile
{
    version     2.0;
    format      ascii;
    arch        "LSB;label=32;scalar=64";
    class       volScalarField;
    location    "0.7";
    object      epsilonEq;
}
// * * * * * * * * * * * * * * * * * * * * * * * * * * * * * * * * * * * * * //

dimensions      [0 0 0 0 0 0 0];

internalField   nonuniform List<scalar> 
160
(
4.1803822e-06
4.5385524e-06
4.3335613e-06
4.054175e-06
3.7648568e-06
3.482205e-06
3.2083472e-06
2.943513e-06
2.6876875e-06
2.4408544e-06
2.2030069e-06
1.9741444e-06
1.7542732e-06
1.5434104e-06
1.3415913e-06
1.1488821e-06
9.6540679e-07
7.914002e-07
6.273343e-07
4.7425184e-07
3.3482685e-07
2.1752069e-07
1.5232342e-07
1.8143711e-07
2.6474512e-07
3.5889736e-07
4.5125238e-07
5.3811716e-07
6.181427e-07
6.9074853e-07
7.5565507e-07
8.1270982e-07
8.617987e-07
9.0276084e-07
9.3535379e-07
9.6040391e-07
9.9312921e-07
1.1350146e-06
2.1168083e-06
5.9686587e-06
1.76004e-06
1.7461232e-06
1.6324424e-06
1.5246654e-06
1.4263961e-06
1.3333498e-06
1.2440043e-06
1.1579923e-06
1.0752665e-06
9.9585422e-07
9.1980512e-07
8.4718312e-07
7.780677e-07
7.1255747e-07
6.5077473e-07
5.9287089e-07
5.3903227e-07
4.8948532e-07
4.4449934e-07
4.0438263e-07
3.6946634e-07
3.4006817e-07
3.1643053e-07
2.9863726e-07
2.865305e-07
2.7966479e-07
2.7732883e-07
2.7863287e-07
2.8262459e-07
2.8839018e-07
2.9511843e-07
3.0212651e-07
3.0884559e-07
3.1471751e-07
3.1876341e-07
3.1801276e-07
3.0434179e-07
2.9290208e-07
6.4727635e-07
1.8339367e-06
1.7599916e-06
1.7460667e-06
1.632383e-06
1.5246049e-06
1.4263351e-06
1.3332885e-06
1.2439428e-06
1.157931e-06
1.0752055e-06
9.9579389e-07
9.1974571e-07
8.4712488e-07
7.7801092e-07
7.125024e-07
6.5072165e-07
5.9282005e-07
5.3898394e-07
4.8943976e-07
4.4445682e-07
4.0434343e-07
3.694307e-07
3.4003631e-07
3.1640261e-07
2.9861328e-07
2.8651036e-07
2.7964832e-07
2.7731581e-07
2.7862295e-07
2.8261704e-07
2.8838435e-07
2.951149e-07
3.0212781e-07
3.0885454e-07
3.1473311e-07
3.1878007e-07
3.1802464e-07
3.0434906e-07
2.9291648e-07
6.4729797e-07
1.83394e-06
4.1803312e-06
4.5384953e-06
4.333501e-06
4.054113e-06
3.7647939e-06
3.4821417e-06
3.2082838e-06
2.9434497e-06
2.6876245e-06
2.440792e-06
2.2029453e-06
1.9740838e-06
1.7542139e-06
1.5433526e-06
1.341535e-06
1.1488276e-06
9.6535402e-07
7.9134924e-07
6.2728508e-07
4.7420421e-07
3.3478069e-07
2.1747719e-07
1.5229355e-07
1.814335e-07
2.6475396e-07
3.5891007e-07
4.5126602e-07
5.3813079e-07
6.1815632e-07
6.9076284e-07
7.5567101e-07
8.1272769e-07
8.6181826e-07
9.0278099e-07
9.3537334e-07
9.6042193e-07
9.9314374e-07
1.1350231e-06
2.116809e-06
5.9686638e-06
)
;

boundaryField
{
    left
    {
        type            calculated;
        value           nonuniform List<scalar> 4(4.9333208e-06 1.420906e-06 1.4208616e-06 4.9332636e-06);
    }
    right
    {
        type            calculated;
        value           nonuniform List<scalar> 4(7.1154289e-06 2.4225793e-06 2.4225601e-06 7.1154352e-06);
    }
    top
    {
        type            calculated;
        value           nonuniform List<scalar> 
40
(
5.1782775e-06
5.9940274e-06
5.7347713e-06
5.3785261e-06
4.9954358e-06
4.6188767e-06
4.253452e-06
3.8999185e-06
3.5583184e-06
3.2286268e-06
2.9108163e-06
2.604859e-06
2.3107258e-06
2.0283851e-06
1.7578035e-06
1.4989455e-06
1.251774e-06
1.0162503e-06
7.923357e-07
5.7999359e-07
3.7919955e-07
1.9000581e-07
1.7069477e-08
1.5550673e-07
3.1055136e-07
4.5450254e-07
5.8728215e-07
7.0892062e-07
8.1946806e-07
9.1898017e-07
1.0075084e-06
1.0850899e-06
1.1517377e-06
1.2074558e-06
1.2527132e-06
1.2922797e-06
1.3665023e-06
1.6628861e-06
3.5367836e-06
7.2203561e-06
)
;
    }
    bottom
    {
        type            calculated;
        value           nonuniform List<scalar> 
40
(
5.1783227e-06
5.9940813e-06
5.7348289e-06
5.378586e-06
4.9954968e-06
4.618938e-06
4.2535134e-06
3.8999797e-06
3.558379e-06
3.2286867e-06
2.9108752e-06
2.6049166e-06
2.3107818e-06
2.0284394e-06
1.7578559e-06
1.4989958e-06
1.251822e-06
1.0162959e-06
7.9237873e-07
5.8003392e-07
3.7923707e-07
1.9004044e-07
1.7091196e-08
1.5547778e-07
3.1052504e-07
4.544788e-07
5.8726087e-07
7.0890115e-07
8.1944898e-07
9.1895969e-07
1.0074859e-06
1.0850671e-06
1.1517173e-06
1.2074379e-06
1.252695e-06
1.2922583e-06
1.3664804e-06
1.6628708e-06
3.5367772e-06
7.220352e-06
)
;
    }
    frontAndBack
    {
        type            empty;
    }
}


// ************************************************************************* //
