/*--------------------------------*- C++ -*----------------------------------*\
| =========                 |                                                 |
| \\      /  F ield         | OpenFOAM: The Open Source CFD Toolbox           |
|  \\    /   O peration     | Version:  2512                                  |
|   \\  /    A nd           | Website:  www.openfoam.com                      |
|    \\/     M anipulation  |                                                 |
\*---------------------------------------------------------------------------*/
FoamFile
{
    version     2.0;
    format      ascii;
    arch        "LSB;label=32;scalar=64";
    class       volSymmTensorField;
    location    "0.7";
    object      epsilon;
}
// * * * * * * * * * * * * * * * * * * * * * * * * * * * * * * * * * * * * * //

dimensions      [0 0 0 0 0 0 0];

internalField   nonuniform List<symmTensor> 
160
(
(-5.3723687e-06 -9.9398579e-08 -2.5849394e-22 1.514255e-06 -2.5849394e-22 0)
(-5.7925322e-06 -2.7803055e-07 -2.0679515e-21 1.6808024e-06 -1.0339758e-21 0)
(-5.4964955e-06 -2.7638934e-07 2.5849394e-21 1.6525108e-06 5.1698788e-22 0)
(-5.1400708e-06 -2.7689995e-07 2.0679515e-21 1.5453609e-06 -1.0339758e-21 0)
(-4.7717939e-06 -2.7059108e-07 0 1.4343987e-06 0 0)
(-4.4120021e-06 -2.6314864e-07 -1.0339758e-21 1.3261197e-06 0 0)
(-4.0632429e-06 -2.5542622e-07 -6.2038546e-21 1.2214036e-06 4.1359031e-21 0)
(-3.7258803e-06 -2.4765689e-07 -6.2038546e-21 1.1201732e-06 -8.2718061e-21 0)
(-3.3999083e-06 -2.3988056e-07 4.1359031e-21 1.0223763e-06 8.2718061e-21 0)
(-3.0852984e-06 -2.3210521e-07 2.0679515e-21 9.2799143e-07 8.2718061e-21 0)
(-2.7820237e-06 -2.2433261e-07 -8.2718061e-21 8.3700778e-07 -2.4815418e-20 0)
(-2.4900577e-06 -2.1656346e-07 2.0679515e-21 7.4941682e-07 -1.6543612e-20 0)
(-2.2093724e-06 -2.0879816e-07 -6.2038546e-21 6.6521e-07 -3.3087225e-20 0)
(-1.9399375e-06 -2.0103707e-07 0 5.8437825e-07 -1.6543612e-20 0)
(-1.6817208e-06 -1.9328046e-07 8.2718061e-21 5.0691188e-07 3.3087225e-20 0)
(-1.4346881e-06 -1.8552865e-07 6.2038546e-21 4.328006e-07 1.6543612e-20 0)
(-1.198803e-06 -1.7778189e-07 -2.0679515e-21 3.6203353e-07 3.3087225e-20 0)
(-9.7402742e-07 -1.7004046e-07 1.2407709e-20 2.9459923e-07 -1.6543612e-20 0)
(-7.6032133e-07 -1.6230458e-07 -4.1359031e-21 2.3048571e-07 -1.323489e-19 0)
(-5.5764313e-07 -1.5457449e-07 -8.2718061e-21 1.696805e-07 -1.323489e-19 0)
(-3.6594963e-07 -1.4685038e-07 1.6543612e-20 1.1217063e-07 9.9261674e-20 0)
(-1.8519623e-07 -1.3913247e-07 4.1359031e-21 5.7942737e-08 6.6174449e-20 0)
(-1.5336953e-08 -1.3142092e-07 -8.2718061e-21 6.9830251e-09 0 0)
(1.4367537e-07 -1.2371596e-07 1.2407709e-20 -4.0722665e-08 -1.9852335e-19 0)
(2.9188906e-07 -1.1601781e-07 -8.2718061e-21 -8.5188836e-08 -3.3087225e-20 0)
(4.2935351e-07 -1.0832678e-07 0 -1.2643035e-07 -3.3087225e-20 0)
(5.561193e-07 -1.0064344e-07 8.2718061e-21 -1.6446243e-07 -1.323489e-19 0)
(6.7223858e-07 -9.2968699e-08 4.1359031e-21 -1.9930075e-07 3.3087225e-20 0)
(7.7776542e-07 -8.5303728e-08 -4.1359031e-21 -2.3096116e-07 6.6174449e-20 0)
(8.7275422e-07 -7.7648388e-08 4.1359031e-21 -2.5945885e-07 -6.6174449e-20 0)
(9.5725426e-07 -7.0001561e-08 2.0679515e-21 -2.8480614e-07 1.9852335e-19 0)
(1.0313007e-06 -6.2366078e-08 0 -3.0700653e-07 -6.6174449e-20 0)
(1.0948973e-06 -5.4766428e-08 -4.1359031e-21 -3.2603297e-07 -6.6174449e-20 0)
(1.1479879e-06 -4.7305813e-08 6.2038546e-21 -3.4174499e-07 -1.323489e-19 0)
(1.1905954e-06 -4.0431749e-08 -8.2718061e-21 -3.5362431e-07 0 0)
(1.224623e-06 -3.6076904e-08 2.0679515e-21 -3.6065529e-07 0 0)
(1.2715614e-06 -4.4432641e-08 6.2038546e-21 -3.6452612e-07 -1.9852335e-19 0)
(1.4404502e-06 -9.1821871e-08 6.2038546e-21 -4.2743094e-07 0 0)
(2.5867715e-06 -3.9756226e-07 2.0679515e-21 -8.4887158e-07 -2.646978e-19 0)
(5.2020326e-06 1.5659747e-07 2.0679515e-21 -5.1311612e-06 -1.323489e-19 0)
(-2.0781853e-06 -8.0590931e-07 -2.5849394e-22 2.9593797e-07 6.4623485e-23 0)
(-1.9793979e-06 -6.9080583e-07 -1.0339758e-21 5.8826771e-07 0 0)
(-1.8482809e-06 -6.384512e-07 -1.8094576e-21 5.6279816e-07 -2.5849394e-21 0)
(-1.7184776e-06 -6.0893093e-07 -2.0679515e-21 5.2028864e-07 3.1019273e-21 0)
(-1.5939006e-06 -5.8870431e-07 -4.6528909e-21 4.8084296e-07 -1.2407709e-20 0)
(-1.4736549e-06 -5.7053003e-07 -4.6528909e-21 4.4420657e-07 6.2038546e-21 0)
(-1.3573591e-06 -5.5278048e-07 -3.6189152e-21 4.0919136e-07 2.0679515e-20 0)
(-1.2448959e-06 -5.351172e-07 -4.6528909e-21 3.7542645e-07 -4.1359031e-21 0)
(-1.1362325e-06 -5.174847e-07 -3.1019273e-21 3.4282076e-07 -1.6543612e-20 0)
(-1.031356e-06 -4.9987626e-07 -3.1019273e-21 3.1135437e-07 1.6543612e-20 0)
(-9.3025727e-07 -4.8229281e-07 -6.2038546e-21 2.8102167e-07 3.3087225e-20 0)
(-8.3292754e-07 -4.6473631e-07 -4.1359031e-21 2.5181952e-07 -4.1359031e-20 0)
(-7.3935737e-07 -4.4720888e-07 -4.1359031e-21 2.2374502e-07 -4.9630837e-20 0)
(-6.4953673e-07 -4.2971265e-07 -4.1359031e-21 1.9679514e-07 -6.6174449e-20 0)
(-5.6345488e-07 -4.122497e-07 1.0339758e-21 1.7096664e-07 3.3087225e-20 0)
(-4.8110042e-07 -3.9482208e-07 -8.2718061e-21 1.4625613e-07 3.3087225e-20 0)
(-4.0246128e-07 -3.774317e-07 -9.3057819e-21 1.2265998e-07 0 0)
(-3.2752477e-07 -3.6008043e-07 -7.2378304e-21 1.0017442e-07 8.2718061e-20 0)
(-2.5627762e-07 -3.4276999e-07 -3.1019273e-21 7.8795454e-08 3.3087225e-20 0)
(-1.8870597e-07 -3.2550201e-07 -1.0339758e-21 5.8518961e-08 1.323489e-19 0)
(-1.2479548e-07 -3.0827799e-07 -6.2038546e-21 3.9340647e-08 -6.6174449e-20 0)
(-6.4531312e-08 -2.9109936e-07 -9.3057819e-21 2.1256072e-08 -6.6174449e-20 0)
(-7.8981855e-09 -2.7396743e-07 -9.3057819e-21 4.260668e-09 1.6543612e-19 0)
(4.5119572e-08 -2.5688345e-07 -9.3057819e-21 -1.1650259e-08 -3.3087225e-20 0)
(9.4538001e-08 -2.3984868e-07 -8.2718061e-21 -2.6481517e-08 -3.3087225e-20 0)
(1.4037352e-07 -2.2286446e-07 -3.1019273e-21 -4.0238068e-08 -3.3087225e-20 0)
(1.8264297e-07 -2.0593241e-07 -5.1698788e-21 -5.2925026e-08 -1.323489e-19 0)
(2.2136369e-07 -1.8905449e-07 -5.1698788e-21 -6.454773e-08 1.323489e-19 0)
(2.5655328e-07 -1.7223156e-07 -6.2038546e-21 -7.51113e-08 -1.323489e-19 0)
(2.882287e-07 -1.5546045e-07 -4.1359031e-21 -8.4619828e-08 0 0)
(3.1640445e-07 -1.3873164e-07 -7.2378304e-21 -9.3075047e-08 -1.323489e-19 0)
(3.4108964e-07 -1.2203012e-07 -5.1698788e-21 -1.0047235e-07 -1.323489e-19 0)
(3.62279e-07 -1.0533225e-07 -4.1359031e-21 -1.0678131e-07 0 0)
(3.7991605e-07 -8.8547291e-08 -4.1359031e-21 -1.1183989e-07 -1.9852335e-19 0)
(3.9372774e-07 -7.1145742e-08 -4.1359031e-21 -1.1485948e-07 0 0)
(4.0258304e-07 -5.0253139e-08 -1.0339758e-21 -1.1242219e-07 -1.323489e-19 0)
(4.0229931e-07 -1.1302857e-08 -4.1359031e-21 -9.3192009e-08 0 0)
(3.8262369e-07 1.033785e-07 -5.1698788e-21 -3.4894152e-08 6.6174449e-20 0)
(3.3680653e-07 5.1381019e-07 -6.2038546e-21 -8.7708654e-08 1.323489e-19 0)
(6.0868725e-07 1.0859618e-06 -6.2038546e-21 -1.6325776e-06 2.646978e-19 0)
(2.0781105e-06 -8.0590429e-07 6.4623485e-23 -2.9592815e-07 -1.2924697e-22 0)
(1.9793182e-06 -6.9080323e-07 7.7548182e-22 -5.8824527e-07 -2.0679515e-21 0)
(1.8481998e-06 -6.3844771e-07 -2.5849394e-22 -5.627723e-07 5.1698788e-22 0)
(1.7183958e-06 -6.0892594e-07 -5.1698788e-22 -5.2026207e-07 6.2038546e-21 0)
(1.5938186e-06 -5.8869782e-07 1.5509636e-21 -4.8081633e-07 -8.2718061e-21 0)
(1.4735728e-06 -5.7052217e-07 1.0339758e-21 -4.4417997e-07 -4.1359031e-21 0)
(1.3572772e-06 -5.5277133e-07 -1.0339758e-21 -4.0916484e-07 -1.2407709e-20 0)
(1.2448143e-06 -5.3510681e-07 -2.0679515e-21 -3.7540005e-07 8.2718061e-21 0)
(1.1361516e-06 -5.1747312e-07 -1.0339758e-21 -3.4279456e-07 1.6543612e-20 0)
(1.0312762e-06 -4.9986354e-07 -5.1698788e-22 -3.1132844e-07 1.6543612e-20 0)
(9.3017894e-07 -4.8227897e-07 0 -2.8099612e-07 0 0)
(8.3285093e-07 -4.6472139e-07 -3.1019273e-21 -2.5179446e-07 -2.4815418e-20 0)
(7.392828e-07 -4.4719292e-07 0 -2.2372055e-07 -1.6543612e-20 0)
(6.4946448e-07 -4.296957e-07 -1.0339758e-21 -1.9677137e-07 -1.6543612e-20 0)
(5.6338523e-07 -4.1223181e-07 -4.1359031e-21 -1.7094368e-07 6.6174449e-20 0)
(4.8103362e-07 -3.9480328e-07 1.0339758e-21 -1.4623408e-07 -6.6174449e-20 0)
(4.0239755e-07 -3.7741206e-07 3.1019273e-21 -1.2263893e-07 -1.6543612e-20 0)
(3.2746434e-07 -3.6005998e-07 1.0339758e-21 -1.0015445e-07 4.9630837e-20 0)
(2.5622065e-07 -3.427488e-07 0 -7.8776636e-08 6.6174449e-20 0)
(1.8865264e-07 -3.2548014e-07 -4.1359031e-21 -5.850135e-08 1.323489e-19 0)
(1.2474591e-07 -3.082555e-07 2.0679515e-21 -3.9324284e-08 6.6174449e-20 0)
(6.4485589e-08 -2.9107631e-07 0 -2.1240983e-08 3.3087225e-20 0)
(7.8563425e-09 -2.7394388e-07 -1.0339758e-21 -4.2468541e-09 1.323489e-19 0)
(-4.51576e-08 -2.5685947e-07 0 1.1662837e-08 -1.323489e-19 0)
(-9.457243e-08 -2.3982431e-07 -2.0679515e-21 2.6492943e-08 -6.6174449e-20 0)
(-1.4040473e-07 -2.2283976e-07 1.0339758e-21 4.0248424e-08 3.3087225e-20 0)
(-1.8267145e-07 -2.0590749e-07 -1.0339758e-21 5.293418e-08 -9.9261674e-20 0)
(-2.2138986e-07 -1.8902961e-07 -1.0339758e-21 6.4554913e-08 -6.6174449e-20 0)
(-2.5657751e-07 -1.7220691e-07 -1.0339758e-21 7.5115278e-08 -1.6543612e-19 0)
(-2.8825156e-07 -1.55436e-07 0 8.4620119e-08 6.6174449e-20 0)
(-3.1642728e-07 -1.3870687e-07 2.0679515e-21 9.3073748e-08 0 0)
(-3.4111438e-07 -1.2200459e-07 -3.1019273e-21 1.0047437e-07 1.323489e-19 0)
(-3.6230716e-07 -1.0530649e-07 0 1.0679053e-07 6.6174449e-20 0)
(-3.7994646e-07 -8.8522565e-08 0 1.1185433e-07 -6.6174449e-20 0)
(-3.9375675e-07 -7.1122775e-08 -2.0679515e-21 1.1487155e-07 0 0)
(-4.0260671e-07 -5.023152e-08 1.0339758e-21 1.1242508e-07 6.6174449e-20 0)
(-4.0231571e-07 -1.1281486e-08 -1.0339758e-21 9.3186378e-08 0 0)
(-3.8263515e-07 1.0339972e-07 -1.0339758e-21 3.4886757e-08 0 0)
(-3.3681471e-07 5.1382955e-07 -2.0679515e-21 8.7702863e-08 -1.9852335e-19 0)
(-6.0868792e-07 1.0859746e-06 0 1.6325628e-06 -6.6174449e-20 0)
(5.3723026e-06 -9.9395953e-08 6.4623485e-22 -1.5142372e-06 -5.1698788e-22 0)
(5.7924591e-06 -2.7802842e-07 2.5849394e-21 -1.6807813e-06 -2.5849394e-21 0)
(5.4964192e-06 -2.7638616e-07 4.1359031e-21 -1.6524874e-06 -1.0339758e-21 0)
(5.1399927e-06 -2.7689504e-07 3.1019273e-21 -1.5453368e-06 2.0679515e-21 0)
(4.7717148e-06 -2.7058462e-07 9.3057819e-21 -1.4343742e-06 4.1359031e-21 0)
(4.4119227e-06 -2.6314077e-07 4.1359031e-21 -1.3260952e-06 -8.2718061e-21 0)
(4.0631636e-06 -2.5541707e-07 -8.2718061e-21 -1.2213791e-06 4.1359031e-21 0)
(3.7258013e-06 -2.476465e-07 -2.0679515e-21 -1.1201487e-06 4.1359031e-21 0)
(3.3998299e-06 -2.3986899e-07 -4.1359031e-21 -1.0223521e-06 8.2718061e-21 0)
(3.085221e-06 -2.3209248e-07 1.0339758e-20 -9.2796747e-07 8.2718061e-21 0)
(2.7819476e-06 -2.2431877e-07 4.1359031e-21 -8.369842e-07 8.2718061e-21 0)
(2.4899833e-06 -2.1654854e-07 1.0339758e-20 -7.4939373e-07 -3.3087225e-20 0)
(2.2092999e-06 -2.0878221e-07 1.0339758e-20 -6.6518748e-07 0 0)
(1.9398673e-06 -2.0102012e-07 8.2718061e-21 -5.843564e-07 -3.3087225e-20 0)
(1.6816531e-06 -1.9326257e-07 1.0339758e-20 -5.0689078e-07 6.6174449e-20 0)
(1.4346232e-06 -1.8550985e-07 1.2407709e-20 -4.3278034e-07 6.6174449e-20 0)
(1.198741e-06 -1.7776225e-07 1.8611564e-20 -3.6201419e-07 -1.1580529e-19 0)
(9.7396859e-07 -1.7002002e-07 4.1359031e-21 -2.9458087e-07 4.9630837e-20 0)
(7.6026584e-07 -1.622834e-07 2.4815418e-20 -2.304684e-07 -3.3087225e-20 0)
(5.5759114e-07 -1.5455262e-07 2.4815418e-20 -1.6966427e-07 -6.6174449e-20 0)
(3.6590127e-07 -1.4682789e-07 4.1359031e-21 -1.1215554e-07 0 0)
(1.8515156e-07 -1.3910941e-07 2.4815418e-20 -5.7928797e-08 0 0)
(1.529601e-08 -1.3139738e-07 4.1359031e-21 -6.9702411e-09 -3.3087225e-20 0)
(-1.4371266e-07 -1.2369197e-07 1.2407709e-20 4.0734318e-08 -1.323489e-19 0)
(-2.9192286e-07 -1.1599343e-07 4.1359031e-21 8.5199407e-08 6.6174449e-20 0)
(-4.2938407e-07 -1.0830204e-07 2.4815418e-20 1.2643989e-07 -6.6174449e-20 0)
(-5.5614693e-07 -1.0061845e-07 4.1359031e-21 1.6447092e-07 -1.6543612e-19 0)
(-6.7226394e-07 -9.2943824e-08 0 1.9930795e-07 0 0)
(-7.7778969e-07 -8.5279222e-08 -1.2407709e-20 2.3096685e-07 -3.3087225e-20 0)
(-8.7277892e-07 -7.7624229e-08 8.2718061e-21 2.5946331e-07 0 0)
(-9.5728046e-07 -6.9976926e-08 8.2718061e-21 2.8481068e-07 -6.6174449e-20 0)
(-1.0313278e-06 -6.2340163e-08 0 3.0701308e-07 1.9852335e-19 0)
(-1.0949243e-06 -5.4740029e-08 0 3.2604239e-07 -6.6174449e-20 0)
(-1.1480142e-06 -4.7280829e-08 -4.1359031e-21 3.4175575e-07 6.6174449e-20 0)
(-1.1906212e-06 -4.0409233e-08 1.2407709e-20 3.5363327e-07 -1.323489e-19 0)
(-1.224649e-06 -3.6056107e-08 1.2407709e-20 3.6066016e-07 0 0)
(-1.2715847e-06 -4.4411417e-08 8.2718061e-21 3.645275e-07 -6.6174449e-20 0)
(-1.4404667e-06 -9.1799906e-08 8.2718061e-21 4.2743129e-07 -1.9852335e-19 0)
(-2.5867803e-06 -3.975422e-07 4.1359031e-21 8.4887203e-07 -2.646978e-19 0)
(-5.2020365e-06 1.5660895e-07 4.1359031e-21 5.1311654e-06 0 0)
)
;

boundaryField
{
    left
    {
        type            calculated;
        value           nonuniform List<symmTensor> 4((-6.5865963e-06 -3.9578134e-07 0 1.3706438e-06 0 0) (-1.8621977e-06 -5.9858479e-07 0 0 0 0) (1.862128e-06 -5.9857779e-07 0 0 0 0) (6.5865211e-06 -3.9577013e-07 0 -1.3706277e-06 0 0));
    }
    right
    {
        type            calculated;
        value           nonuniform List<symmTensor> 4((2.7153359e-06 6.9502273e-09 0 -9.0531945e-06 0 0) (9.2447749e-07 1.0397072e-08 0 -3.0822902e-06 0 0) (-9.2447015e-07 1.0396994e-08 0 3.0822658e-06 0 0) (-2.7153383e-06 6.950141e-09 0 9.0532025e-06 0 0));
    }
    top
    {
        type            calculated;
        value           nonuniform List<symmTensor> 
40
(
(6.5883467e-06 -4.9586035e-10 0 -1.9763123e-06 0 0)
(7.6262409e-06 -9.5029899e-10 0 -2.28763e-06 0 0)
(7.2963973e-06 -1.5165975e-09 0 -2.1886702e-06 0 0)
(6.843152e-06 -2.1112083e-09 0 -2.0526967e-06 0 0)
(6.3557507e-06 -2.704783e-09 0 -1.9064786e-06 0 0)
(5.8766581e-06 -3.2918223e-09 0 -1.7627541e-06 0 0)
(5.4117311e-06 -3.8702079e-09 0 -1.62328e-06 0 0)
(4.9619325e-06 -4.43839e-09 0 -1.4883449e-06 0 0)
(4.5273156e-06 -4.9948842e-09 0 -1.357965e-06 0 0)
(4.1078491e-06 -5.5382327e-09 0 -1.2321309e-06 0 0)
(3.7034977e-06 -6.0670096e-09 0 -1.1108318e-06 0 0)
(3.314226e-06 -6.5798261e-09 0 -9.9405726e-07 0 0)
(2.9399965e-06 -7.0753353e-09 0 -8.8179592e-07 0 0)
(2.580769e-06 -7.5522355e-09 0 -7.7403571e-07 0 0)
(2.2365005e-06 -8.0092739e-09 0 -6.7076371e-07 0 0)
(1.9071452e-06 -8.4452497e-09 0 -5.7196615e-07 0 0)
(1.5926547e-06 -8.8590176e-09 0 -4.7762849e-07 0 0)
(1.2929779e-06 -9.2494904e-09 0 -3.8773539e-07 0 0)
(1.0080615e-06 -9.6156424e-09 0 -3.0227084e-07 0 0)
(7.3785e-07 -9.9565116e-09 0 -2.2121813e-07 0 0)
(4.8228563e-07 -1.0271203e-08 0 -1.4455992e-07 0 0)
(2.4130883e-07 -1.0558889e-08 0 -7.2278312e-08 0 0)
(1.4858184e-08 -1.0818814e-08 0 -4.3548541e-09 0 0)
(-1.9712933e-07 -1.1050296e-08 0 5.9229395e-08 0 0)
(-3.9471825e-07 -1.1252726e-08 0 1.1849383e-07 0 0)
(-5.7797443e-07 -1.1425571e-08 0 1.7345824e-07 0 0)
(-7.4696535e-07 -1.1568374e-08 0 2.2414289e-07 0 0)
(-9.0176135e-07 -1.1680757e-08 0 2.7056894e-07 0 0)
(-1.0424365e-06 -1.176243e-08 0 3.1275861e-07 0 0)
(-1.1690659e-06 -1.1813203e-08 0 3.5073452e-07 0 0)
(-1.2817174e-06 -1.1832988e-08 0 3.8451699e-07 0 0)
(-1.380439e-06 -1.1821769e-08 0 4.1412052e-07 0 0)
(-1.4652485e-06 -1.1779571e-08 0 4.3955043e-07 0 0)
(-1.536151e-06 -1.1706492e-08 0 4.608083e-07 0 0)
(-1.5937437e-06 -1.1602809e-08 0 4.7807328e-07 0 0)
(-1.6440959e-06 -1.1468384e-08 0 4.9316583e-07 0 0)
(-1.738545e-06 -1.1296482e-08 0 5.2148363e-07 0 0)
(-2.1156679e-06 -1.1020467e-08 0 6.3458326e-07 0 0)
(-4.4999346e-06 -1.0331287e-08 0 1.3496864e-06 0 0)
(-9.1866965e-06 -6.8825084e-09 0 2.7553784e-06 0 0)
)
;
    }
    bottom
    {
        type            calculated;
        value           nonuniform List<symmTensor> 
40
(
(-6.5884042e-06 -4.958065e-10 0 1.9763296e-06 0 0)
(-7.6263094e-06 -9.5027809e-10 0 2.2876506e-06 0 0)
(-7.2964706e-06 -1.516592e-09 0 2.1886922e-06 0 0)
(-6.8432283e-06 -2.111207e-09 0 2.0527196e-06 0 0)
(-6.3558282e-06 -2.7047827e-09 0 1.9065019e-06 0 0)
(-5.8767361e-06 -3.2918223e-09 0 1.7627776e-06 0 0)
(-5.4118092e-06 -3.8702083e-09 0 1.6233034e-06 0 0)
(-4.9620102e-06 -4.4383907e-09 0 1.4883683e-06 0 0)
(-4.5273927e-06 -4.9948853e-09 0 1.3579882e-06 0 0)
(-4.1079253e-06 -5.5382342e-09 0 1.2321538e-06 0 0)
(-3.7035725e-06 -6.0670116e-09 0 1.1108543e-06 0 0)
(-3.3142992e-06 -6.5798286e-09 0 9.9407928e-07 0 0)
(-2.9400678e-06 -7.0753383e-09 0 8.8181735e-07 0 0)
(-2.5808382e-06 -7.5522389e-09 0 7.7405649e-07 0 0)
(-2.2365672e-06 -8.0092778e-09 0 6.7078375e-07 0 0)
(-1.9072093e-06 -8.445254e-09 0 5.7198539e-07 0 0)
(-1.5927158e-06 -8.8590223e-09 0 4.7764685e-07 0 0)
(-1.2930359e-06 -9.2494954e-09 0 3.8775283e-07 0 0)
(-1.0081163e-06 -9.6156477e-09 0 3.0228729e-07 0 0)
(-7.3790131e-07 -9.9565171e-09 0 2.2123354e-07 0 0)
(-4.8233339e-07 -1.0271208e-08 0 1.4457427e-07 0 0)
(-2.4135296e-07 -1.0558894e-08 0 7.2291575e-08 0 0)
(-1.4898685e-08 -1.081882e-08 0 4.3670241e-09 0 0)
(1.9709239e-07 -1.1050302e-08 0 -5.9218295e-08 0 0)
(3.9468474e-07 -1.1252731e-08 0 -1.1848376e-07 0 0)
(5.7794422e-07 -1.1425576e-08 0 -1.7344916e-07 0 0)
(7.4693827e-07 -1.156838e-08 0 -2.2413476e-07 0 0)
(9.0173658e-07 -1.1680766e-08 0 -2.7056149e-07 0 0)
(1.0424122e-06 -1.1762443e-08 0 -3.1275132e-07 0 0)
(1.1690399e-06 -1.1813213e-08 0 -3.5072669e-07 0 0)
(1.2816886e-06 -1.1832985e-08 0 -3.8450836e-07 0 0)
(1.3804101e-06 -1.1821747e-08 0 -4.1411184e-07 0 0)
(1.4652224e-06 -1.1779545e-08 0 -4.395426e-07 0 0)
(1.5361282e-06 -1.1706487e-08 0 -4.6080144e-07 0 0)
(1.5937205e-06 -1.1602834e-08 0 -4.7806632e-07 0 0)
(1.6440687e-06 -1.1468422e-08 0 -4.9315765e-07 0 0)
(1.738517e-06 -1.12965e-08 0 -5.2147523e-07 0 0)
(2.1156483e-06 -1.1020462e-08 0 -6.3457738e-07 0 0)
(4.4999264e-06 -1.0331285e-08 0 -1.349684e-06 0 0)
(9.1866912e-06 -6.8825354e-09 0 -2.7553768e-06 0 0)
)
;
    }
    frontAndBack
    {
        type            empty;
    }
}


// ************************************************************************* //
