/*--------------------------------*- C++ -*----------------------------------*\
| =========                 |                                                 |
| \\      /  F ield         | OpenFOAM: The Open Source CFD Toolbox           |
|  \\    /   O peration     | Version:  2512                                  |
|   \\  /    A nd           | Website:  www.openfoam.com                      |
|    \\/     M anipulation  |                                                 |
\*---------------------------------------------------------------------------*/
FoamFile
{
    version     2.0;
    format      ascii;
    arch        "LSB;label=32;scalar=64";
    class       pointVectorField;
    location    "0.7";
    object      pointD;
}
// * * * * * * * * * * * * * * * * * * * * * * * * * * * * * * * * * * * * * //

dimensions      [0 1 0 0 0 0 0];

internalField   nonuniform List<vector> 
410
(
(-6.7867072e-08 -3.4266095e-08 0)
(-2.3257718e-07 -1.4109426e-07 0)
(-4.2323491e-07 -3.3008248e-07 0)
(-6.0564668e-07 -6.0797834e-07 0)
(-7.7672738e-07 -9.7336069e-07 0)
(-9.3562309e-07 -1.4206294e-06 0)
(-1.0825415e-06 -1.9437903e-06 0)
(-1.2178367e-06 -2.5369416e-06 0)
(-1.341887e-06 -3.1943649e-06 0)
(-1.4550718e-06 -3.9105326e-06 0)
(-1.5577699e-06 -4.6801068e-06 0)
(-1.6503592e-06 -5.4979392e-06 0)
(-1.7332167e-06 -6.3590703e-06 0)
(-1.8067184e-06 -7.2587287e-06 0)
(-1.8712394e-06 -8.1923312e-06 0)
(-1.9271536e-06 -9.1554815e-06 0)
(-1.9748338e-06 -1.014397e-05 0)
(-2.0146517e-06 -1.1153774e-05 0)
(-2.0469776e-06 -1.2181056e-05 0)
(-2.0721805e-06 -1.3222162e-05 0)
(-2.090628e-06 -1.4273625e-05 0)
(-2.1026864e-06 -1.5332158e-05 0)
(-2.1087202e-06 -1.639466e-05 0)
(-2.1090926e-06 -1.745821e-05 0)
(-2.1041653e-06 -1.8520069e-05 0)
(-2.0942982e-06 -1.9577678e-05 0)
(-2.0798496e-06 -2.0628658e-05 0)
(-2.0611762e-06 -2.1670809e-05 0)
(-2.0386327e-06 -2.2702108e-05 0)
(-2.0125724e-06 -2.372071e-05 0)
(-1.9833464e-06 -2.4724945e-05 0)
(-1.9513042e-06 -2.5713319e-05 0)
(-1.916794e-06 -2.6684512e-05 0)
(-1.8801634e-06 -2.7637379e-05 0)
(-1.8417602e-06 -2.8570955e-05 0)
(-1.8019172e-06 -2.9484458e-05 0)
(-1.7608155e-06 -3.0377247e-05 0)
(-1.7173525e-06 -3.1248305e-05 0)
(-1.6644613e-06 -3.2091691e-05 0)
(-1.5519632e-06 -3.287818e-05 0)
(-1.3222959e-06 -3.340047e-05 0)
(0 0 0)
(-1.0390833e-07 -9.964761e-08 0)
(-2.028772e-07 -2.8748901e-07 0)
(-2.9529021e-07 -5.6794627e-07 0)
(-3.8121305e-07 -9.3612472e-07 0)
(-4.6090703e-07 -1.3861455e-06 0)
(-5.3458873e-07 -1.9119683e-06 0)
(-6.0245565e-07 -2.5076934e-06 0)
(-6.6469941e-07 -3.1676044e-06 0)
(-7.2151001e-07 -3.8861742e-06 0)
(-7.7307679e-07 -4.6580655e-06 0)
(-8.1958866e-07 -5.4781301e-06 0)
(-8.6123407e-07 -6.3414085e-06 0)
(-8.9820099e-07 -7.24313e-06 0)
(-9.3067691e-07 -8.1787111e-06 0)
(-9.5884877e-07 -9.1437561e-06 0)
(-9.8290295e-07 -1.0134056e-05 0)
(-1.0030252e-06 -1.1145587e-05 0)
(-1.0194007e-06 -1.2174513e-05 0)
(-1.0322138e-06 -1.3217181e-05 0)
(-1.0416485e-06 -1.4270122e-05 0)
(-1.0478876e-06 -1.5330052e-05 0)
(-1.0511136e-06 -1.6393869e-05 0)
(-1.051508e-06 -1.7458652e-05 0)
(-1.0492515e-06 -1.8521663e-05 0)
(-1.0445242e-06 -1.9580343e-05 0)
(-1.0375051e-06 -2.0632314e-05 0)
(-1.0283726e-06 -2.1675376e-05 0)
(-1.0173041e-06 -2.2707506e-05 0)
(-1.0044761e-06 -2.372686e-05 0)
(-9.9006441e-07 -2.4731768e-05 0)
(-9.7424391e-07 -2.5720736e-05 0)
(-9.5718913e-07 -2.6692445e-05 0)
(-9.3907483e-07 -2.7645748e-05 0)
(-9.2007863e-07 -2.8579673e-05 0)
(-9.0039188e-07 -2.949342e-05 0)
(-8.8026244e-07 -3.0386317e-05 0)
(-8.601473e-07 -3.1257461e-05 0)
(-8.41016e-07 -3.2103907e-05 0)
(-8.2417558e-07 -3.2908408e-05 0)
(-7.9374124e-07 -3.36268e-05 0)
(0 0 0)
(-9.3712793e-13 -8.4850712e-08 0)
(-1.9578747e-12 -2.7287253e-07 0)
(-2.99656e-12 -5.5442285e-07 0)
(-4.0384347e-12 -9.2363371e-07 0)
(-5.0812331e-12 -1.3745943e-06 0)
(-6.1238461e-12 -1.9013091e-06 0)
(-7.1640842e-12 -2.4978931e-06 0)
(-8.1985698e-12 -3.1586335e-06 0)
(-9.2234828e-12 -3.8780042e-06 0)
(-1.0234591e-11 -4.6506679e-06 0)
(-1.1227811e-11 -5.4714766e-06 0)
(-1.2198945e-11 -6.335471e-06 0)
(-1.3144191e-11 -7.2378802e-06 0)
(-1.4059732e-11 -8.1741211e-06 0)
(-1.4942261e-11 -9.1397978e-06 0)
(-1.5788475e-11 -1.0130701e-05 0)
(-1.6595615e-11 -1.1142809e-05 0)
(-1.736091e-11 -1.2172283e-05 0)
(-1.8082158e-11 -1.3215471e-05 0)
(-1.8757164e-11 -1.4268906e-05 0)
(-1.9384395e-11 -1.5329301e-05 0)
(-1.9962527e-11 -1.6393557e-05 0)
(-2.049129e-11 -1.7458751e-05 0)
(-2.0971469e-11 -1.8522146e-05 0)
(-2.1405965e-11 -1.9581184e-05 0)
(-2.1799813e-11 -2.0633486e-05 0)
(-2.2159469e-11 -2.1676851e-05 0)
(-2.2489345e-11 -2.2709259e-05 0)
(-2.2791611e-11 -2.3728863e-05 0)
(-2.3071129e-11 -2.4733996e-05 0)
(-2.3346116e-11 -2.5723162e-05 0)
(-2.3647956e-11 -2.6695043e-05 0)
(-2.4001325e-11 -2.7648489e-05 0)
(-2.4390495e-11 -2.8582524e-05 0)
(-2.4758509e-11 -2.9496313e-05 0)
(-2.5042001e-11 -3.0389046e-05 0)
(-2.5218054e-11 -3.1259392e-05 0)
(-2.5336848e-11 -3.2103721e-05 0)
(-2.5424465e-11 -3.2912979e-05 0)
(-2.541018e-11 -3.3703857e-05 0)
(0 0 0)
(1.0390646e-07 -9.9647119e-08 0)
(2.028734e-07 -2.8748838e-07 0)
(2.9528442e-07 -5.6794561e-07 0)
(3.8120526e-07 -9.3612405e-07 0)
(4.6089723e-07 -1.3861448e-06 0)
(5.3457691e-07 -1.9119676e-06 0)
(6.0244181e-07 -2.5076928e-06 0)
(6.6468356e-07 -3.1676038e-06 0)
(7.2149217e-07 -3.8861736e-06 0)
(7.7305699e-07 -4.6580649e-06 0)
(8.1956693e-07 -5.4781294e-06 0)
(8.6121045e-07 -6.3414079e-06 0)
(8.9817554e-07 -7.2431294e-06 0)
(9.3064968e-07 -8.1787105e-06 0)
(9.5881982e-07 -9.1437555e-06 0)
(9.8287235e-07 -1.0134055e-05 0)
(1.002993e-06 -1.1145587e-05 0)
(1.019367e-06 -1.2174513e-05 0)
(1.0321788e-06 -1.321718e-05 0)
(1.0416121e-06 -1.4270122e-05 0)
(1.04785e-06 -1.5330052e-05 0)
(1.0510749e-06 -1.6393868e-05 0)
(1.0514682e-06 -1.7458652e-05 0)
(1.0492108e-06 -1.8521663e-05 0)
(1.0444826e-06 -1.9580343e-05 0)
(1.0374628e-06 -2.0632314e-05 0)
(1.0283296e-06 -2.1675376e-05 0)
(1.0172604e-06 -2.2707506e-05 0)
(1.0044318e-06 -2.372686e-05 0)
(9.9001952e-07 -2.4731768e-05 0)
(9.7419843e-07 -2.5720736e-05 0)
(9.5714302e-07 -2.6692445e-05 0)
(9.3902801e-07 -2.7645748e-05 0)
(9.2003108e-07 -2.8579673e-05 0)
(9.0034361e-07 -2.949342e-05 0)
(8.8021356e-07 -3.0386317e-05 0)
(8.6009795e-07 -3.1257461e-05 0)
(8.4096631e-07 -3.2103907e-05 0)
(8.2412566e-07 -3.2908408e-05 0)
(7.9369125e-07 -3.36268e-05 0)
(6.7866457e-08 -3.4265693e-08 0)
(2.3257512e-07 -1.4109329e-07 0)
(4.2323115e-07 -3.3008128e-07 0)
(6.0564108e-07 -6.0797708e-07 0)
(7.7671988e-07 -9.7335942e-07 0)
(9.3561365e-07 -1.4206282e-06 0)
(1.0825301e-06 -1.943789e-06 0)
(1.2178234e-06 -2.5369403e-06 0)
(1.3418717e-06 -3.1943637e-06 0)
(1.4550546e-06 -3.9105313e-06 0)
(1.5577508e-06 -4.6801055e-06 0)
(1.6503383e-06 -5.497938e-06 0)
(1.7331939e-06 -6.3590691e-06 0)
(1.8066938e-06 -7.2587276e-06 0)
(1.871213e-06 -8.1923301e-06 0)
(1.9271256e-06 -9.1554804e-06 0)
(1.9748042e-06 -1.0143969e-05 0)
(2.0146205e-06 -1.1153773e-05 0)
(2.046945e-06 -1.2181055e-05 0)
(2.0721465e-06 -1.3222161e-05 0)
(2.0905928e-06 -1.4273624e-05 0)
(2.1026499e-06 -1.5332157e-05 0)
(2.1086826e-06 -1.6394659e-05 0)
(2.1090541e-06 -1.7458209e-05 0)
(2.1041259e-06 -1.8520068e-05 0)
(2.0942579e-06 -1.9577678e-05 0)
(2.0798085e-06 -2.0628658e-05 0)
(2.0611344e-06 -2.1670809e-05 0)
(2.0385904e-06 -2.2702108e-05 0)
(2.0125295e-06 -2.372071e-05 0)
(1.9833028e-06 -2.4724945e-05 0)
(1.9512599e-06 -2.5713319e-05 0)
(1.9167489e-06 -2.6684512e-05 0)
(1.8801177e-06 -2.7637379e-05 0)
(1.8417139e-06 -2.8570954e-05 0)
(1.8018703e-06 -2.9484457e-05 0)
(1.7607679e-06 -3.0377247e-05 0)
(1.7173043e-06 -3.1248305e-05 0)
(1.6644126e-06 -3.2091692e-05 0)
(1.5519142e-06 -3.287818e-05 0)
(1.3222468e-06 -3.340047e-05 0)
(-6.7867072e-08 -3.4266095e-08 0)
(-2.3257718e-07 -1.4109426e-07 0)
(-4.2323491e-07 -3.3008248e-07 0)
(-6.0564668e-07 -6.0797834e-07 0)
(-7.7672738e-07 -9.7336069e-07 0)
(-9.3562309e-07 -1.4206294e-06 0)
(-1.0825415e-06 -1.9437903e-06 0)
(-1.2178367e-06 -2.5369416e-06 0)
(-1.341887e-06 -3.1943649e-06 0)
(-1.4550718e-06 -3.9105326e-06 0)
(-1.5577699e-06 -4.6801068e-06 0)
(-1.6503592e-06 -5.4979392e-06 0)
(-1.7332167e-06 -6.3590703e-06 0)
(-1.8067184e-06 -7.2587287e-06 0)
(-1.8712394e-06 -8.1923312e-06 0)
(-1.9271536e-06 -9.1554815e-06 0)
(-1.9748338e-06 -1.014397e-05 0)
(-2.0146517e-06 -1.1153774e-05 0)
(-2.0469776e-06 -1.2181056e-05 0)
(-2.0721805e-06 -1.3222162e-05 0)
(-2.090628e-06 -1.4273625e-05 0)
(-2.1026864e-06 -1.5332158e-05 0)
(-2.1087202e-06 -1.639466e-05 0)
(-2.1090926e-06 -1.745821e-05 0)
(-2.1041653e-06 -1.8520069e-05 0)
(-2.0942982e-06 -1.9577678e-05 0)
(-2.0798496e-06 -2.0628658e-05 0)
(-2.0611762e-06 -2.1670809e-05 0)
(-2.0386327e-06 -2.2702108e-05 0)
(-2.0125724e-06 -2.372071e-05 0)
(-1.9833464e-06 -2.4724945e-05 0)
(-1.9513042e-06 -2.5713319e-05 0)
(-1.916794e-06 -2.6684512e-05 0)
(-1.8801634e-06 -2.7637379e-05 0)
(-1.8417602e-06 -2.8570955e-05 0)
(-1.8019172e-06 -2.9484458e-05 0)
(-1.7608155e-06 -3.0377247e-05 0)
(-1.7173525e-06 -3.1248305e-05 0)
(-1.6644613e-06 -3.2091691e-05 0)
(-1.5519632e-06 -3.287818e-05 0)
(-1.3222959e-06 -3.340047e-05 0)
(0 0 0)
(-1.0390833e-07 -9.964761e-08 0)
(-2.028772e-07 -2.8748901e-07 0)
(-2.9529021e-07 -5.6794627e-07 0)
(-3.8121305e-07 -9.3612472e-07 0)
(-4.6090703e-07 -1.3861455e-06 0)
(-5.3458873e-07 -1.9119683e-06 0)
(-6.0245565e-07 -2.5076934e-06 0)
(-6.6469941e-07 -3.1676044e-06 0)
(-7.2151001e-07 -3.8861742e-06 0)
(-7.7307679e-07 -4.6580655e-06 0)
(-8.1958866e-07 -5.4781301e-06 0)
(-8.6123407e-07 -6.3414085e-06 0)
(-8.9820099e-07 -7.24313e-06 0)
(-9.3067691e-07 -8.1787111e-06 0)
(-9.5884877e-07 -9.1437561e-06 0)
(-9.8290295e-07 -1.0134056e-05 0)
(-1.0030252e-06 -1.1145587e-05 0)
(-1.0194007e-06 -1.2174513e-05 0)
(-1.0322138e-06 -1.3217181e-05 0)
(-1.0416485e-06 -1.4270122e-05 0)
(-1.0478876e-06 -1.5330052e-05 0)
(-1.0511136e-06 -1.6393869e-05 0)
(-1.051508e-06 -1.7458652e-05 0)
(-1.0492515e-06 -1.8521663e-05 0)
(-1.0445242e-06 -1.9580343e-05 0)
(-1.0375051e-06 -2.0632314e-05 0)
(-1.0283726e-06 -2.1675376e-05 0)
(-1.0173041e-06 -2.2707506e-05 0)
(-1.0044761e-06 -2.372686e-05 0)
(-9.9006441e-07 -2.4731768e-05 0)
(-9.7424391e-07 -2.5720736e-05 0)
(-9.5718913e-07 -2.6692445e-05 0)
(-9.3907483e-07 -2.7645748e-05 0)
(-9.2007863e-07 -2.8579673e-05 0)
(-9.0039188e-07 -2.949342e-05 0)
(-8.8026244e-07 -3.0386317e-05 0)
(-8.601473e-07 -3.1257461e-05 0)
(-8.41016e-07 -3.2103907e-05 0)
(-8.2417558e-07 -3.2908408e-05 0)
(-7.9374124e-07 -3.36268e-05 0)
(0 0 0)
(-9.3712793e-13 -8.4850712e-08 0)
(-1.9578747e-12 -2.7287253e-07 0)
(-2.99656e-12 -5.5442285e-07 0)
(-4.0384347e-12 -9.2363371e-07 0)
(-5.0812331e-12 -1.3745943e-06 0)
(-6.1238461e-12 -1.9013091e-06 0)
(-7.1640842e-12 -2.4978931e-06 0)
(-8.1985698e-12 -3.1586335e-06 0)
(-9.2234828e-12 -3.8780042e-06 0)
(-1.0234591e-11 -4.6506679e-06 0)
(-1.1227811e-11 -5.4714766e-06 0)
(-1.2198945e-11 -6.335471e-06 0)
(-1.3144191e-11 -7.2378802e-06 0)
(-1.4059732e-11 -8.1741211e-06 0)
(-1.4942261e-11 -9.1397978e-06 0)
(-1.5788475e-11 -1.0130701e-05 0)
(-1.6595615e-11 -1.1142809e-05 0)
(-1.736091e-11 -1.2172283e-05 0)
(-1.8082158e-11 -1.3215471e-05 0)
(-1.8757164e-11 -1.4268906e-05 0)
(-1.9384395e-11 -1.5329301e-05 0)
(-1.9962527e-11 -1.6393557e-05 0)
(-2.049129e-11 -1.7458751e-05 0)
(-2.0971469e-11 -1.8522146e-05 0)
(-2.1405965e-11 -1.9581184e-05 0)
(-2.1799813e-11 -2.0633486e-05 0)
(-2.2159469e-11 -2.1676851e-05 0)
(-2.2489345e-11 -2.2709259e-05 0)
(-2.2791611e-11 -2.3728863e-05 0)
(-2.3071129e-11 -2.4733996e-05 0)
(-2.3346116e-11 -2.5723162e-05 0)
(-2.3647956e-11 -2.6695043e-05 0)
(-2.4001325e-11 -2.7648489e-05 0)
(-2.4390495e-11 -2.8582524e-05 0)
(-2.4758509e-11 -2.9496313e-05 0)
(-2.5042001e-11 -3.0389046e-05 0)
(-2.5218054e-11 -3.1259392e-05 0)
(-2.5336848e-11 -3.2103721e-05 0)
(-2.5424465e-11 -3.2912979e-05 0)
(-2.541018e-11 -3.3703857e-05 0)
(0 0 0)
(1.0390646e-07 -9.9647119e-08 0)
(2.028734e-07 -2.8748838e-07 0)
(2.9528442e-07 -5.6794561e-07 0)
(3.8120526e-07 -9.3612405e-07 0)
(4.6089723e-07 -1.3861448e-06 0)
(5.3457691e-07 -1.9119676e-06 0)
(6.0244181e-07 -2.5076928e-06 0)
(6.6468356e-07 -3.1676038e-06 0)
(7.2149217e-07 -3.8861736e-06 0)
(7.7305699e-07 -4.6580649e-06 0)
(8.1956693e-07 -5.4781294e-06 0)
(8.6121045e-07 -6.3414079e-06 0)
(8.9817554e-07 -7.2431294e-06 0)
(9.3064968e-07 -8.1787105e-06 0)
(9.5881982e-07 -9.1437555e-06 0)
(9.8287235e-07 -1.0134055e-05 0)
(1.002993e-06 -1.1145587e-05 0)
(1.019367e-06 -1.2174513e-05 0)
(1.0321788e-06 -1.321718e-05 0)
(1.0416121e-06 -1.4270122e-05 0)
(1.04785e-06 -1.5330052e-05 0)
(1.0510749e-06 -1.6393868e-05 0)
(1.0514682e-06 -1.7458652e-05 0)
(1.0492108e-06 -1.8521663e-05 0)
(1.0444826e-06 -1.9580343e-05 0)
(1.0374628e-06 -2.0632314e-05 0)
(1.0283296e-06 -2.1675376e-05 0)
(1.0172604e-06 -2.2707506e-05 0)
(1.0044318e-06 -2.372686e-05 0)
(9.9001952e-07 -2.4731768e-05 0)
(9.7419843e-07 -2.5720736e-05 0)
(9.5714302e-07 -2.6692445e-05 0)
(9.3902801e-07 -2.7645748e-05 0)
(9.2003108e-07 -2.8579673e-05 0)
(9.0034361e-07 -2.949342e-05 0)
(8.8021356e-07 -3.0386317e-05 0)
(8.6009795e-07 -3.1257461e-05 0)
(8.4096631e-07 -3.2103907e-05 0)
(8.2412566e-07 -3.2908408e-05 0)
(7.9369125e-07 -3.36268e-05 0)
(6.7866457e-08 -3.4265693e-08 0)
(2.3257512e-07 -1.4109329e-07 0)
(4.2323115e-07 -3.3008128e-07 0)
(6.0564108e-07 -6.0797708e-07 0)
(7.7671988e-07 -9.7335942e-07 0)
(9.3561365e-07 -1.4206282e-06 0)
(1.0825301e-06 -1.943789e-06 0)
(1.2178234e-06 -2.5369403e-06 0)
(1.3418717e-06 -3.1943637e-06 0)
(1.4550546e-06 -3.9105313e-06 0)
(1.5577508e-06 -4.6801055e-06 0)
(1.6503383e-06 -5.497938e-06 0)
(1.7331939e-06 -6.3590691e-06 0)
(1.8066938e-06 -7.2587276e-06 0)
(1.871213e-06 -8.1923301e-06 0)
(1.9271256e-06 -9.1554804e-06 0)
(1.9748042e-06 -1.0143969e-05 0)
(2.0146205e-06 -1.1153773e-05 0)
(2.046945e-06 -1.2181055e-05 0)
(2.0721465e-06 -1.3222161e-05 0)
(2.0905928e-06 -1.4273624e-05 0)
(2.1026499e-06 -1.5332157e-05 0)
(2.1086826e-06 -1.6394659e-05 0)
(2.1090541e-06 -1.7458209e-05 0)
(2.1041259e-06 -1.8520068e-05 0)
(2.0942579e-06 -1.9577678e-05 0)
(2.0798085e-06 -2.0628658e-05 0)
(2.0611344e-06 -2.1670809e-05 0)
(2.0385904e-06 -2.2702108e-05 0)
(2.0125295e-06 -2.372071e-05 0)
(1.9833028e-06 -2.4724945e-05 0)
(1.9512599e-06 -2.5713319e-05 0)
(1.9167489e-06 -2.6684512e-05 0)
(1.8801177e-06 -2.7637379e-05 0)
(1.8417139e-06 -2.8570954e-05 0)
(1.8018703e-06 -2.9484457e-05 0)
(1.7607679e-06 -3.0377247e-05 0)
(1.7173043e-06 -3.1248305e-05 0)
(1.6644126e-06 -3.2091692e-05 0)
(1.5519142e-06 -3.287818e-05 0)
(1.3222468e-06 -3.340047e-05 0)
)
;

boundaryField
{
    left
    {
        type            calculated;
    }
    right
    {
        type            calculated;
    }
    top
    {
        type            calculated;
    }
    bottom
    {
        type            calculated;
    }
    frontAndBack
    {
        type            empty;
    }
}


// ************************************************************************* //
