/*--------------------------------*- C++ -*----------------------------------*\
| =========                 |                                                 |
| \\      /  F ield         | OpenFOAM: The Open Source CFD Toolbox           |
|  \\    /   O peration     | Version:  2512                                  |
|   \\  /    A nd           | Website:  www.openfoam.com                      |
|    \\/     M anipulation  |                                                 |
\*---------------------------------------------------------------------------*/
FoamFile
{
    version     2.0;
    format      ascii;
    arch        "LSB;label=32;scalar=64";
    class       volScalarField;
    location    "0.7";
    object      sigmaHyd;
}
// * * * * * * * * * * * * * * * * * * * * * * * * * * * * * * * * * * * * * //

dimensions      [1 -1 -2 0 0 0 0];

internalField   nonuniform List<scalar> 
160
(
-367439.4
-391593.31
-366093.78
-342353.33
-317847.16
-293893.55
-270651.37
-248162.59
-226431.62
-205457.8
-185239.61
-165775.32
-147063.08
-129100.88
-111886.57
-95417.859
-79692.334
-64707.447
-50460.535
-36948.822
-24169.429
-12119.38
-795.61216
9805.0194
19685.736
28849.824
37300.654
45041.699
52076.596
58409.083
64042.678
68980.399
73225.172
76785.041
79711.529
82282.643
86384.308
96478.027
165514.28
6749.6522
-169737.84
-132488.59
-122426.93
-114113.23
-106005.49
-98042.694
-90301.693
-82806.613
-75563.018
-68571.58
-61831.962
-55343.62
-49105.938
-43118.247
-37379.832
-31889.932
-26647.742
-21652.415
-16903.063
-12398.763
-8138.556
-4121.4514
-346.43023
3187.5536
6481.57
9536.7101
12354.09
14934.854
17280.189
19391.321
21269.467
22915.932
24333.113
25531.063
26558.882
27634.367
29438.791
33117.099
23723.607
-97513.37
169731.66
132483.14
122421.66
114107.98
106000.22
98037.41
90296.414
82801.362
75557.818
68566.455
61826.935
55338.712
49101.166
43113.63
37375.385
31885.67
26643.678
21648.561
16899.43
12395.361
8135.3926
4118.5339
343.7608
-3189.9775
-6483.7607
-9538.6956
-12355.93
-14936.662
-17282.117
-19393.47
-21271.765
-22918.097
-24334.917
-25532.584
-26560.495
-27636.345
-29440.889
-33118.894
-23724.938
97511.891
367434.8
391588.36
366088.74
342348.19
317841.96
293888.33
270646.14
248157.39
226426.47
205452.72
185234.61
165770.44
147058.33
129096.28
111882.13
95413.601
79688.271
64703.592
50456.899
36945.415
24166.26
12116.454
792.93037
-9807.4611
-19687.948
-28851.826
-37302.477
-45043.428
-52078.366
-58411.011
-64044.74
-68982.358
-73226.851
-76786.517
-79713.139
-82284.651
-86386.399
-96479.564
-165515.07
-6749.6212
)
;

boundaryField
{
    left
    {
        type            zeroGradient;
    }
    right
    {
        type            zeroGradient;
    }
    top
    {
        type            zeroGradient;
    }
    bottom
    {
        type            zeroGradient;
    }
    frontAndBack
    {
        type            empty;
    }
}


// ************************************************************************* //
