/*--------------------------------*- C++ -*----------------------------------*\
| =========                 |                                                 |
| \\      /  F ield         | OpenFOAM: The Open Source CFD Toolbox           |
|  \\    /   O peration     | Version:  2512                                  |
|   \\  /    A nd           | Website:  www.openfoam.com                      |
|    \\/     M anipulation  |                                                 |
\*---------------------------------------------------------------------------*/
FoamFile
{
    version     2.0;
    format      ascii;
    arch        "LSB;label=32;scalar=64";
    class       volScalarField;
    location    "0.7";
    object      sigmaEq;
}
// * * * * * * * * * * * * * * * * * * * * * * * * * * * * * * * * * * * * * //

dimensions      [1 -1 -2 0 0 0 0];

internalField   nonuniform List<scalar> 
160
(
964703.58
1047358.2
1000052.6
935578.85
868813.1
803585.76
740387.82
679272.23
620235.57
563274.09
508386.21
455571.77
404832.27
356171.64
309597.98
265126.65
222786.18
182630.82
144769.45
109442.73
77267.734
50197.081
35151.559
41870.102
61095.027
82822.467
104135.17
124180.88
142648.32
159403.51
174381.94
187548.42
198876.62
208329.42
215850.88
221631.67
229183.66
261926.45
488494.22
1377382.8
406163.08
402951.5
376717.47
351845.86
329168.34
307696.11
287077.9
267228.99
248138.42
229812.51
212262.72
195503.8
179554.08
164436.34
150178.78
136816.36
124392.06
112958.15
102576.77
93319.069
85261.463
78477.269
73022.431
68916.292
66122.422
64538.029
63998.96
64299.892
65221.058
66551.58
68104.254
69721.503
71272.059
72627.118
73560.786
73387.56
70232.721
67592.788
149371.47
423216.15
406151.91
402938.46
376703.77
351831.91
329154.25
307681.95
287063.72
267214.84
248124.35
229798.59
212249.01
195490.36
179540.98
164423.63
150166.53
136804.63
124380.91
112947.64
102566.96
93310.022
85253.239
78469.918
73015.986
68910.757
66117.776
64534.228
63995.957
64297.605
65219.316
66550.235
68103.438
69721.801
71274.124
72630.717
73564.632
73390.303
70234.399
67596.111
149376.45
423216.93
964691.8
1047345.1
1000038.7
935564.54
868798.6
803571.16
740373.19
679257.62
620221.03
563259.69
508372
455557.81
404818.59
356158.29
309585
265114.06
222774
182619.05
144758.1
109431.74
77257.082
50187.044
35144.665
41869.27
61097.068
82825.402
104138.31
124184.03
142651.46
159406.81
174385.62
187552.54
198881.14
208334.08
215855.39
221635.83
229187.02
261928.4
488494.38
1377383.9
)
;

boundaryField
{
    left
    {
        type            calculated;
        value           nonuniform List<scalar> 4(1138458.6 327901.39 327891.13 1138445.4);
    }
    right
    {
        type            calculated;
        value           nonuniform List<scalar> 4(1642022.1 559056.76 559052.33 1642023.5);
    }
    top
    {
        type            calculated;
        value           nonuniform List<scalar> 
40
(
1194987.1
1383237.1
1323408.8
1241198.3
1152792.9
1065894.6
981565.84
899981.2
821150.39
745067.73
671726.84
601121.32
533244.41
468088.86
405646.96
345910.5
288870.91
234519.3
182846.7
133844.67
87507.588
43847.495
3939.1101
35886.168
71665.698
104885.2
135526.65
163597.07
189108.01
212072.35
232501.95
250405.35
265785.63
278643.65
289087.65
298218.4
315346.69
383742.96
816180.83
1666236
)
;
    }
    bottom
    {
        type            calculated;
        value           nonuniform List<scalar> 
40
(
1194997.5
1383249.5
1323422.1
1241212.2
1152806.9
1065908.8
981580.01
899995.31
821164.39
745081.55
671740.42
601134.61
533257.35
468101.41
405659.06
345922.12
288882
234529.83
182856.63
133853.98
87516.248
43855.486
3944.1222
35879.489
71659.625
104879.72
135521.74
163592.57
189103.61
212067.62
232496.73
250400.11
265780.9
278639.51
289083.45
298213.45
315341.62
383739.41
816179.35
1666235.1
)
;
    }
    frontAndBack
    {
        type            empty;
    }
}


// ************************************************************************* //
