/*--------------------------------*- C++ -*----------------------------------*\
| =========                 |                                                 |
| \\      /  F ield         | OpenFOAM: The Open Source CFD Toolbox           |
|  \\    /   O peration     | Version:  2512                                  |
|   \\  /    A nd           | Website:  www.openfoam.com                      |
|    \\/     M anipulation  |                                                 |
\*---------------------------------------------------------------------------*/
FoamFile
{
    version     2.0;
    format      ascii;
    arch        "LSB;label=32;scalar=64";
    class       volSymmTensorField;
    location    "0.7";
    object      sigma;
}
// * * * * * * * * * * * * * * * * * * * * * * * * * * * * * * * * * * * * * //

dimensions      [1 -1 -2 0 0 0 0];

internalField   nonuniform List<symmTensor> 
160
(
(-996105.67 -15292.089 -3.9768299e-11 63374.887 -3.9768299e-11 -169587.42)
(-1071894.2 -42773.93 -3.1814639e-10 77849.609 -1.5907319e-10 -180735.37)
(-1014581 -42521.437 3.9768299e-10 85266.064 7.9536597e-11 -168966.36)
(-948789.36 -42599.992 3.1814639e-10 79738.598 -1.5907319e-10 -158009.23)
(-880820.82 -41629.397 0 73978.029 0 -146698.69)
(-814412.73 -40484.406 -1.5907319e-10 68375.243 0 -135643.18)
(-750030.31 -39296.342 -9.5443917e-10 62992.231 6.3629278e-10 -124916.01)
(-687748.93 -38101.06 -9.5443917e-10 57797.754 -1.2725856e-09 -114536.58)
(-627569.72 -36904.702 6.3629278e-10 52781.761 1.2725856e-09 -104506.9)
(-569487.96 -35708.494 3.1814639e-10 47941.234 1.2725856e-09 -94826.678)
(-513498.85 -34512.709 -1.2725856e-09 43275.222 -3.8177567e-09 -85495.205)
(-459597.49 -33317.456 3.1814639e-10 38783.207 -2.5451711e-09 -76511.688)
(-407778.71 -32122.794 -9.5443917e-10 34464.731 -5.0903422e-09 -67875.269)
(-358036.95 -30928.78 0 30319.324 -2.5451711e-09 -59585.022)
(-310366.24 -29735.456 1.2725856e-09 26346.488 5.0903422e-09 -51639.955)
(-264760.26 -28542.87 9.5443917e-10 22545.695 2.5451711e-09 -44039.012)
(-221212.31 -27351.061 -3.1814639e-10 18916.389 5.0903422e-09 -36781.077)
(-179715.35 -26160.071 1.9088783e-09 15457.983 -2.5451711e-09 -29864.976)
(-140261.99 -24969.936 -6.3629278e-10 12169.863 -2.0361369e-08 -23289.478)
(-102844.55 -23780.691 -1.2725856e-09 9051.389 -2.0361369e-08 -17053.303)
(-67455.064 -22592.367 2.5451711e-09 6101.8995 1.5271027e-08 -11155.121)
(-34085.288 -21404.995 6.3629278e-10 3320.7072 1.0180684e-08 -5593.5601)
(-2726.7368 -20218.603 -1.2725856e-09 707.10594 0 -367.20561)
(26629.296 -19033.224 1.9088783e-09 -1739.6318 -3.0542053e-08 4525.3936)
(53991.734 -17848.894 -1.2725856e-09 -4020.2504 -5.0903422e-09 9085.7243)
(79369.69 -16665.658 0 -6135.5198 -5.0903422e-09 13315.304)
(102772.5 -15483.607 1.2725856e-09 -8086.2256 -2.0361369e-08 17215.687)
(124209.8 -14302.877 6.3629278e-10 -9873.1769 5.0903422e-09 20788.476)
(143691.57 -13123.651 -6.3629278e-10 -11497.134 1.0180684e-08 24035.352)
(161227.92 -11945.906 6.3629278e-10 -12958.708 -1.0180684e-08 26958.038)
(176828.05 -10769.471 3.1814639e-10 -14258.171 3.0542053e-08 29558.159)
(190498.76 -9594.7812 0 -15394.666 -1.0180684e-08 31837.107)
(202241.97 -8425.6044 -6.3629278e-10 -16362.686 -1.0180684e-08 33796.233)
(212052.78 -7277.8173 9.5443917e-10 -17136.902 -2.0361369e-08 35439.25)
(219958.45 -6220.269 -1.2725856e-09 -17613.804 0 36789.936)
(226380.15 -5550.293 3.1814639e-10 -17508.825 0 37976.605)
(235494.5 -6835.791 9.5443917e-10 -16211.261 -3.0542053e-08 39869.681)
(266136.05 -14126.442 9.5443917e-10 -21230.287 0 44528.32)
(474356.05 -61163.425 3.1814639e-10 -54204.423 -4.0722738e-08 76391.205)
(803427.93 24091.918 3.1814639e-10 -786294.2 -2.0361369e-08 3115.2241)
(-398061.36 -123986.05 -3.9768299e-11 -32811.623 9.9420747e-12 -78340.542)
(-365671.33 -106277.82 -1.5907319e-10 29354.146 0 -61148.578)
(-340855.65 -98223.261 -2.7837809e-10 30079.595 -3.9768299e-10 -56504.738)
(-317048.81 -93681.682 -3.1814639e-10 27376.762 4.7721958e-10 -52667.645)
(-294141.09 -90569.893 -7.1582938e-10 25050.229 -1.9088783e-09 -48925.611)
(-271966.61 -87773.851 -7.1582938e-10 23088.998 9.5443917e-10 -45250.474)
(-250502.19 -85043.151 -5.5675618e-10 21274.813 3.1814639e-09 -41677.704)
(-229740.88 -82325.723 -7.1582938e-10 19539.478 -6.3629278e-10 -38218.437)
(-209680.23 -79613.03 -4.7721958e-10 17866.416 -2.5451711e-09 -34875.239)
(-190318.57 -76904.041 -4.7721958e-10 16252.25 2.5451711e-09 -31648.421)
(-171654.33 -74198.894 -9.5443917e-10 14696.274 5.0903422e-09 -28537.829)
(-153685.91 -71497.894 -6.3629278e-10 13198.256 -6.3629278e-09 -25543.209)
(-136411.57 -68801.366 -6.3629278e-10 11758.033 -7.6355133e-09 -22664.279)
(-119829.46 -66109.638 -6.3629278e-10 10375.446 -1.0180684e-08 -19900.729)
(-103937.6 -63423.031 1.5907319e-10 9050.3305 5.0903422e-09 -17252.23)
(-88733.879 -60741.858 -1.2725856e-09 7782.5126 5.0903422e-09 -14718.43)
(-74216.078 -58066.416 -1.4316588e-09 6571.8088 0 -12298.958)
(-60381.849 -55396.989 -1.1135124e-09 5418.0263 1.2725856e-08 -9993.4223)
(-47228.74 -52733.844 -4.7721958e-10 4320.9637 5.0903422e-09 -7801.4139)
(-34754.194 -50077.232 -1.5907319e-10 3280.4111 2.0361369e-08 -5722.506)
(-22955.562 -47427.383 -9.5443917e-10 2296.1506 -1.0180684e-08 -3756.2566)
(-11830.102 -44784.517 -1.4316588e-09 1367.9566 -1.0180684e-08 -1902.2083)
(-1374.9963 -42148.835 -1.4316588e-09 495.59651 2.5451711e-08 -159.89088)
(8412.6511 -39520.531 -1.4316588e-09 -321.16896 -5.0903422e-09 1471.1786)
(17535.802 -36899.797 -1.2725856e-09 -1082.5857 -5.0903422e-09 2991.4938)
(25997.485 -34286.84 -4.7721958e-10 -1788.9135 -5.0903422e-09 4401.5585)
(33800.806 -31681.91 -7.9536597e-10 -2440.4241 -2.0361369e-08 5701.8877)
(40948.962 -29085.306 -7.9536597e-10 -3037.4106 2.0361369e-08 6893.0094)
(47445.207 -26497.164 -9.5443917e-10 -3580.113 -2.0361369e-08 7975.4716)
(53292.717 -23916.992 -6.3629278e-10 -4068.5945 0 8949.8405)
(58494.286 -21343.329 -1.1135124e-09 -4502.5608 -2.0361369e-08 9816.6772)
(63051.913 -18773.865 -7.9536597e-10 -4880.7009 -2.0361369e-08 10576.584)
(66965.898 -16204.962 -6.3629278e-10 -5197.2265 0 11230.668)
(70232.191 -13622.66 -6.3629278e-10 -5422.5691 -3.0542053e-08 11783.568)
(72831.444 -10945.499 -6.3629278e-10 -5412.7433 0 12257.946)
(74690.176 -7731.2521 -1.5907319e-10 -4541.3984 -2.0361369e-08 12754.323)
(75479.336 -1738.901 -6.3629278e-10 -750.09791 0 13587.134)
(74149.999 15904.384 -7.9536597e-10 9916.4839 1.0180684e-08 15284.815)
(62765.747 79047.721 -9.5443917e-10 -2544.2819 2.0361369e-08 10949.357)
(48638.021 167071.05 -9.5443917e-10 -296171.96 4.0722738e-08 -45006.171)
(398047 -123985.28 9.9420747e-12 32810.281 -1.9884149e-11 78337.688)
(365656.56 -106277.42 1.193049e-10 -29353.21 -3.1814639e-10 61146.063)
(340840.73 -98222.725 -3.9768299e-11 -30078.048 7.9536597e-11 56502.306)
(317033.81 -93680.914 -7.9536597e-11 -27375.097 9.5443917e-10 52665.221)
(294126.04 -90568.895 2.3860979e-10 -25048.564 -1.2725856e-09 48923.178)
(271951.54 -87772.641 1.5907319e-10 -23087.345 -6.3629278e-10 45248.035)
(250487.14 -85041.743 -1.5907319e-10 -21273.169 -1.9088783e-09 41675.268)
(229725.91 -82324.125 -3.1814639e-10 -19537.84 1.2725856e-09 38216.013)
(209665.4 -79611.25 -1.5907319e-10 -17864.785 2.5451711e-09 34872.839)
(190303.94 -76902.083 -7.9536597e-11 -16250.627 2.5451711e-09 31646.056)
(171639.96 -74196.765 0 -14694.664 0 28535.509)
(153671.86 -71495.599 -4.7721958e-10 -13196.665 -3.8177567e-09 25540.944)
(136397.89 -68798.912 0 -11756.469 -2.5451711e-09 22662.077)
(119816.21 -66107.03 -1.5907319e-10 -10373.919 -2.5451711e-09 19898.598)
(103924.83 -63420.278 -6.3629278e-10 -9048.8504 1.0180684e-08 17250.178)
(88721.635 -60738.966 1.5907319e-10 -7781.0873 -1.0180684e-08 14716.463)
(74204.398 -58063.393 4.7721958e-10 -6570.4461 -2.5451711e-09 12297.082)
(60370.772 -55393.844 1.5907319e-10 -5416.7331 7.6355133e-09 9991.6434)
(47218.298 -52730.585 0 -4319.7456 1.0180684e-08 7799.7368)
(34744.418 -50073.867 -6.3629278e-10 -3279.2721 2.0361369e-08 5720.9356)
(22946.474 -47423.923 3.1814639e-10 -2295.0933 1.0180684e-08 3754.7966)
(11821.722 -44780.97 0 -1366.9817 5.0903422e-09 1900.8618)
(1367.3269 -42145.212 -1.5907319e-10 -494.70333 2.0361369e-08 158.65883)
(-8419.6204 -39516.841 0 321.98528 -2.0361369e-08 -1472.2973)
(-17542.11 -36896.048 -3.1814639e-10 1083.3324 -1.0180684e-08 -2992.5049)
(-26003.202 -34283.039 1.5907319e-10 1789.5904 5.0903422e-09 -4402.4749)
(-33806.036 -31678.076 -1.5907319e-10 2440.983 -1.5271027e-08 -5702.737)
(-40953.823 -29081.478 -1.5907319e-10 3037.6811 -1.0180684e-08 -6893.844)
(-47449.824 -26493.371 -1.5907319e-10 3579.8349 -2.5451711e-08 -7976.3617)
(-53297.226 -23913.23 0 4067.6474 1.0180684e-08 -8950.8324)
(-58498.858 -21339.518 3.1814639e-10 4501.3004 0 -9817.7377)
(-63056.718 -18769.936 -4.7721958e-10 4880.0116 2.0361369e-08 -10577.583)
(-66971.062 -16200.998 0 5197.8123 1.0180684e-08 -11231.5)
(-70237.571 -13618.856 0 5424.0889 -1.0180684e-08 -11784.269)
(-72836.652 -10941.965 -3.1814639e-10 5413.8562 0 -12258.69)
(-74694.729 -7727.9261 1.5907319e-10 4540.9306 1.0180684e-08 -12755.236)
(-75482.827 -1735.6132 -1.5907319e-10 748.26339 0 -13588.102)
(-74152.589 15907.649 -1.5907319e-10 -9918.4501 0 -15285.644)
(-62767.619 79050.7 -3.1814639e-10 2542.7768 -3.0542053e-08 -10949.971)
(-48638.807 167073.02 0 296168.99 -1.0180684e-08 45005.488)
(996093.39 -15291.685 9.9420747e-11 -63374.277 -7.9536597e-11 169585.29)
(1071880.6 -42773.604 3.9768299e-10 -77848.643 -3.9768299e-10 180733.09)
(1014567 -42520.948 6.3629278e-10 -85264.796 -1.5907319e-10 168964.03)
(948774.96 -42599.237 4.7721958e-10 -79737.261 3.1814639e-10 158006.86)
(880806.27 -41628.402 1.4316588e-09 -73976.67 6.3629278e-10 146696.29)
(814398.1 -40483.195 6.3629278e-10 -68373.879 -1.2725856e-09 135640.77)
(750015.69 -39294.933 -1.2725856e-09 -62990.867 6.3629278e-10 124913.6)
(687734.37 -38099.461 -3.1814639e-10 -57796.395 6.3629278e-10 114534.18)
(627555.28 -36902.921 -6.3629278e-10 -52780.41 1.2725856e-09 104504.52)
(569473.71 -35706.536 1.5907319e-09 -47939.896 1.2725856e-09 94824.331)
(513484.84 -34510.58 6.3629278e-10 -43273.902 1.2725856e-09 85492.899)
(459583.79 -33315.16 1.5907319e-09 -38781.909 -5.0903422e-09 76509.434)
(407765.37 -32120.34 1.5907319e-09 -34463.461 0 67873.075)
(358024.02 -30926.172 1.2725856e-09 -30318.087 -5.0903422e-09 59582.897)
(310353.77 -29732.703 1.5907319e-09 -26345.291 1.0180684e-08 51637.906)
(264748.3 -28539.977 1.9088783e-09 -22544.545 1.0180684e-08 44037.047)
(221200.9 -27348.038 2.8633175e-09 -18915.289 -1.7816198e-08 36779.202)
(179704.52 -26156.926 6.3629278e-10 -15456.938 7.6355133e-09 29863.196)
(140251.77 -24966.677 3.8177567e-09 -12168.877 -5.0903422e-09 23287.8)
(102834.98 -23777.326 3.8177567e-09 -9050.4658 -1.0180684e-08 17051.73)
(67446.161 -22588.907 6.3629278e-10 -6101.0402 0 11153.658)
(34077.066 -21401.448 3.8177567e-09 -3319.9131 0 5592.2096)
(2719.2002 -20214.981 6.3629278e-10 -706.37692 -5.0903422e-09 365.96786)
(-26636.16 -19029.534 1.9088783e-09 1740.2976 -2.0361369e-08 -4526.5205)
(-53997.955 -17845.144 6.3629278e-10 4020.8558 1.0180684e-08 -9086.7453)
(-79375.314 -16661.852 3.8177567e-09 6136.0642 -1.0180684e-08 -13316.227)
(-102777.59 -15479.762 6.3629278e-10 8086.69 -2.5451711e-08 -17216.528)
(-124214.5 -14299.05 0 9873.4874 0 -20789.274)
(-143696.12 -13119.88 -1.9088783e-09 11497.193 -5.0903422e-09 -24036.169)
(-161232.61 -11942.189 1.2725856e-09 12958.504 0 -26958.928)
(-176833.03 -10765.681 1.2725856e-09 14257.917 -1.0180684e-08 -29559.111)
(-190503.83 -9590.7943 0 15394.769 3.0542053e-08 -31838.011)
(-202246.91 -8421.5429 0 16363.359 -1.0180684e-08 -33797.008)
(-212057.5 -7273.9737 -6.3629278e-10 17137.876 1.0180684e-08 -35439.931)
(-219963.18 -6216.8051 1.9088783e-09 17614.44 -2.0361369e-08 -36790.679)
(-226385.07 -5547.0934 1.9088783e-09 17508.647 0 -37977.531)
(-235499.06 -6832.5258 1.2725856e-09 16210.508 -1.0180684e-08 -39870.646)
(-266139.29 -14123.062 1.2725856e-09 21229.63 -3.0542053e-08 -44529.029)
(-474357.77 -61160.339 6.3629278e-10 54204.125 -4.0722738e-08 -76391.571)
(-803428.51 24093.685 6.3629278e-10 786294.86 0 -3115.2098)
)
;

boundaryField
{
    left
    {
        type            calculated;
        value           nonuniform List<symmTensor> 4((-1242595.2 -60889.437 0 -18404.365 0 -229272.64) (-368346.79 -92089.968 0 -81854.843 0 -81854.843) (368333.02 -92088.891 0 81851.782 0 81851.782) (1242581 -60887.713 0 18404.237 0 229270.04));
    }
    right
    {
        type            calculated;
        value           nonuniform List<symmTensor> 4((139156.8 1069.2657 0 -1671386.4 0 -278587.19) (47378.395 1599.5495 0 -569047.4 0 -94848.911) (-47378.017 1599.5375 0 569042.89 0 94848.16) (-139156.92 1069.2525 0 1671387.8 0 278587.44));
    }
    top
    {
        type            calculated;
        value           nonuniform List<symmTensor> 
40
(
(1216318.6 -76.286208 0 -101321.26 0 202726.79)
(1407932 -146.19984 0 -117278.86 0 234664.22)
(1347038.1 -233.32269 0 -112203.01 0 224515.48)
(1263362.1 -324.80128 0 -105230.02 0 210569.47)
(1173380.2 -416.12047 0 -97732.006 0 195572.4)
(1084932.2 -506.43419 0 -90361.996 0 180830.95)
(999099.35 -595.41661 0 -83210.051 0 166525.33)
(916059.39 -682.82923 0 -76290.975 0 152685.17)
(835822.2 -768.44372 0 -69605.587 0 139312.11)
(758381.98 -852.0358 0 -63153.401 0 126405.2)
(683732.21 -933.38609 0 -56933.871 0 113963.33)
(611866.36 -1012.2809 0 -50946.449 0 101985.44)
(542777.51 -1088.5131 0 -45190.556 0 90470.355)
(476458.24 -1161.8824 0 -39665.568 0 79416.849)
(412900.6 -1232.196 0 -34370.82 0 68823.597)
(352096.15 -1299.2692 0 -29305.602 0 58689.19)
(294035.94 -1362.9258 0 -24469.165 0 49012.14)
(238710.56 -1422.9985 0 -19860.72 0 39790.879)
(186110.16 -1479.3296 0 -15479.44 0 31023.767)
(136224.48 -1531.771 0 -11324.464 0 22709.093)
(89042.876 -1580.185 0 -7394.9014 0 14845.086)
(44554.348 -1624.4444 0 -3689.8276 0 7429.9127)
(2747.5594 -1664.433 0 -208.2927 0 461.68485)
(-36389.124 -1700.0456 0 3050.6792 0 -6061.5354)
(-72867.617 -1731.1886 0 6088.0873 0 -12141.733)
(-106700.07 -1757.7802 0 8904.9511 0 -17780.932)
(-137898.95 -1779.7498 0 11502.315 0 -22981.207)
(-166477.24 -1797.0395 0 13881.268 0 -27744.722)
(-192448.59 -1809.6046 0 16042.957 0 -32073.752)
(-215826.9 -1817.4159 0 17988.546 0 -35970.611)
(-236624.66 -1820.4597 0 19719.082 0 -39437.378)
(-254850.77 -1818.7337 0 21235.313 0 -42475.537)
(-270508.47 -1812.2417 0 22537.515 0 -45085.629)
(-283598.74 -1800.9987 0 23625.774 0 -47267.811)
(-294231.79 -1785.0475 0 24509.279 0 -49040.457)
(-303528.17 -1764.3668 0 25281.333 0 -50590.333)
(-320965.66 -1737.9202 0 26731.048 0 -53497.203)
(-390589.98 -1695.4565 0 32525.573 0 -65102.62)
(-830770.08 -1589.4288 0 69171.622 0 -138472.45)
(-1696033.2 -1058.8474 0 141209.07 0 -282695.3)
)
;
    }
    bottom
    {
        type            calculated;
        value           nonuniform List<symmTensor> 
40
(
(-1216329.2 -76.277923 0 101322.15 0 -202728.56)
(-1407944.7 -146.19663 0 117279.92 0 -234666.32)
(-1347051.7 -233.32184 0 112204.15 0 -224517.73)
(-1263376.2 -324.80107 0 105231.2 0 -210571.81)
(-1173394.5 -416.12042 0 97733.206 0 -195574.78)
(-1084946.6 -506.43419 0 90363.204 0 -180833.34)
(-999113.76 -595.41666 0 83211.26 0 -166527.73)
(-916073.75 -682.82934 0 76292.179 0 -152687.56)
(-835836.44 -768.44389 0 69606.781 0 -139314.48)
(-758396.04 -852.03604 0 63154.58 0 -126407.54)
(-683746.03 -933.3864 0 56935.03 0 -113965.64)
(-611879.88 -1012.2813 0 50947.583 0 -101987.69)
(-542790.67 -1088.5136 0 45191.66 0 -90472.548)
(-476471 -1161.8829 0 39666.639 0 -79418.975)
(-412912.91 -1232.1966 0 34371.853 0 -68825.648)
(-352107.97 -1299.2698 0 29306.594 0 -58691.159)
(-294047.22 -1362.9265 0 24470.112 0 -49014.019)
(-238721.26 -1422.9993 0 19861.618 0 -39792.663)
(-186120.26 -1479.3304 0 15480.287 0 -31025.45)
(-136233.95 -1531.7719 0 11325.259 0 -22710.671)
(-89051.691 -1580.1859 0 7395.6407 0 -14846.555)
(-44562.495 -1624.4453 0 3690.5109 0 -7431.2698)
(-2755.0356 -1664.4338 0 208.91971 0 -462.93016)
(36382.305 -1700.0464 0 -3050.1073 0 6060.3996)
(72861.432 -1731.1894 0 -6087.5686 0 12140.702)
(106694.5 -1757.7809 0 -8904.4833 0 17780.003)
(137893.95 -1779.7507 0 -11501.896 0 22980.374)
(166472.66 -1797.041 0 -13880.885 0 27743.96)
(192444.11 -1809.6065 0 -16042.582 0 32073.006)
(215822.1 -1817.4175 0 -17988.143 0 35969.81)
(236619.36 -1820.4592 0 -19718.637 0 39436.495)
(254845.43 -1818.7303 0 -21234.865 0 42474.648)
(270503.66 -1812.2377 0 -22537.111 0 45084.828)
(283594.52 -1800.9979 0 -23625.421 0 47267.109)
(294227.52 -1785.0513 0 -24508.92 0 49039.745)
(303523.14 -1764.3726 0 -25280.911 0 50589.496)
(320960.5 -1737.9231 0 -26730.615 0 53496.343)
(390586.37 -1695.4557 0 -32525.27 0 65102.019)
(830768.57 -1589.4285 0 -69171.495 0 138472.2)
(1696032.3 -1058.8516 0 -141208.99 0 282695.14)
)
;
    }
    frontAndBack
    {
        type            empty;
    }
}


// ************************************************************************* //
