/*--------------------------------*- C++ -*----------------------------------*\
| =========                 |                                                 |
| \\      /  F ield         | OpenFOAM: The Open Source CFD Toolbox           |
|  \\    /   O peration     | Version:  2512                                  |
|   \\  /    A nd           | Website:  www.openfoam.com                      |
|    \\/     M anipulation  |                                                 |
\*---------------------------------------------------------------------------*/
FoamFile
{
    version     2.0;
    format      ascii;
    arch        "LSB;label=32;scalar=64";
    class       surfaceSymmTensorField;
    location    "0.7";
    object      sigmaf;
}
// * * * * * * * * * * * * * * * * * * * * * * * * * * * * * * * * * * * * * //

dimensions      [1 -1 -2 0 0 0 0];

internalField   nonuniform List<symmTensor> 
276
(
(-1232381.6 -38657.807 0 -38141.261 0 -293197.59)
(-837356.42 -124900.39 0 -20299.33 0 -197920.56)
(-1146476.5 -42250.914 0 -3195.2126 0 -265308.85)
(-790081.53 -86046.357 0 5564.8293 0 -181042.32)
(-1067746.1 -43946.556 0 -67.26804 0 -246418.48)
(-738202.36 -78964.531 0 3672.3559 0 -169506.92)
(-992247.36 -43503.514 0 213.56807 0 -228930.87)
(-686922.44 -75825.172 0 1534.1544 0 -158166.53)
(-919099.33 -42439.172 0 141.89346 0 -212067.1)
(-637278.16 -73566.062 0 912.47026 0 -146853.62)
(-848222.63 -41231.318 0 109.41471 0 -195718.43)
(-589223.2 -71385.098 0 767.9958 0 -135797.36)
(-779617.68 -39995.964 0 99.928388 0 -179888.71)
(-542713.44 -69202.578 0 739.63446 0 -125070.88)
(-713286.68 -38756.277 0 98.024817 0 -164582)
(-497729.89 -67016.081 0 733.95799 0 -114691.37)
(-649228.13 -37516.172 0 98.054882 0 -149799.25)
(-454265.07 -64829.473 0 732.36722 0 -104661.39)
(-587438.16 -36276.576 0 98.631005 0 -135539.89)
(-412314.93 -62644.514 0 731.20719 0 -94980.859)
(-527912.25 -35037.46 0 99.356789 0 -121802.98)
(-371875.89 -60462.003 0 730.23779 0 -85648.997)
(-470644.98 -33799.129 0 100.20141 0 -108587.26)
(-332944.53 -58282.295 0 729.04518 0 -76665.112)
(-415630.71 -32561.417 0 101.09238 0 -95891.45)
(-295517 -56105.711 0 727.9487 0 -68028.243)
(-362863.08 -31324.623 0 102.06897 0 -83714.08)
(-259589.39 -53932.461 0 726.58723 0 -59737.57)
(-312335.59 -30088.547 0 103.08149 0 -72053.655)
(-225157.29 -51762.811 0 725.33383 0 -51791.99)
(-264041.04 -28853.506 0 104.16969 0 -60908.509)
(-192216.26 -49596.95 0 723.8023 0 -44190.566)
(-217972.13 -27619.271 0 105.29036 0 -50276.964)
(-160761.33 -47435.118 0 722.40005 0 -36932.062)
(-174120.94 -26386.174 0 106.47834 0 -40157.184)
(-130787.57 -45277.486 0 720.7136 0 -30015.429)
(-132479.42 -25153.963 0 107.69583 0 -30547.322)
(-102289.52 -43124.268 0 719.17841 0 -23439.311)
(-93039.01 -23922.978 0 108.97189 0 -21445.393)
(-75261.783 -40975.614 0 717.35642 0 -17202.56)
(-55791.013 -22692.947 0 110.27417 0 -12849.401)
(-49698.464 -38831.709 0 715.70615 0 -11303.713)
(-20726.304 -21464.22 0 111.62567 0 -4757.2334)
(-25593.769 -36692.687 0 713.76767 0 -5741.5388)
(12164.354 -20236.51 0 112.99957 0 2833.2355)
(-2941.4389 -34558.706 0 712.01737 0 -514.48189)
(42890.573 -19010.179 0 114.41278 0 9924.2275)
(18264.663 -32429.891 0 709.97712 0 4378.7632)
(71462.068 -17784.943 0 115.84524 0 16517.98)
(38031.116 -30306.392 0 708.13156 0 8939.8264)
(97888.898 -16561.184 0 117.30375 0 22616.816)
(56364.359 -28188.352 0 705.99463 0 13170.082)
(122181.29 -15338.719 0 118.78206 0 28223.094)
(73271.27 -26075.99 0 704.01398 0 17071.219)
(144349.92 -14118.023 0 120.28301 0 33339.277)
(88758.653 -23969.566 0 701.78822 0 20644.717)
(164405.62 -12899.062 0 121.9143 0 37967.894)
(102833.64 -21869.337 0 699.69219 0 23892.307)
(182359.36 -11681.869 0 124.0423 0 42111.555)
(115503.06 -19775.234 0 697.82731 0 26815.59)
(198221.8 -10466.146 0 127.84894 0 45772.996)
(126773.07 -17687.072 0 696.95663 0 29416.16)
(212005.1 -9253.4919 0 137.61097 0 48956.011)
(136647.85 -15606.087 0 698.59166 0 31695.332)
(223728.37 -8052.952 0 169.24282 0 51668.681)
(145127.16 -13539.75 0 709.11813 0 33654.526)
(233436.97 -6907.6506 0 282.36675 0 53935.232)
(152197.54 -11513.072 0 760.02449 0 35297.9)
(241240.32 -6026.4821 0 671.09747 0 55825.712)
(157799.35 -9591.6814 0 1017.6964 0 36650.088)
(247363.07 -6412.862 0 1647.802 0 57464.047)
(161719.07 -7889.1783 0 2278.628 0 37845.624)
(251695.57 -12433.244 0 2259.3411 0 58604.979)
(163293.29 -6071.4534 0 7907.1811 0 39507.801)
(250372.91 -38260.853 0 -22611.175 0 52560.401)
(161361.13 -382.34119 0 27702.351 0 43630.035)
(205174.49 -110211.15 0 -180273.24 0 5746.4441)
(156838.61 43542.392 0 73717.651 0 53205.291)
(210536.17 203655.75 0 -109795.4 0 23247.87)
(-416325.14 -110353.95 0 -6522.3519 0 -97580.19)
(-7.776708 -117835.82 0 -0.93228187 0 -2.0097669)
(-385822.83 -102757.06 0 1185.048 0 -88762.564)
(-8.1595859 -116546.59 0 0.021293711 0 -1.8780674)
(-357514.12 -97052.797 0 933.13255 0 -82287.921)
(-8.2213697 -107272.74 0 0.29370866 0 -1.8294602)
(-331561.39 -93487.218 0 459.66966 0 -76408.09)
(-8.2477084 -101777.68 0 0.2909656 0 -1.8361714)
(-306958.52 -90544.483 0 321.54205 0 -70762.379)
(-8.2516983 -98168.551 0 0.30229512 0 -1.8344777)
(-283274.73 -87747.665 0 291.11028 0 -65303.912)
(-8.2629797 -95068.433 0 0.25974865 0 -1.8468995)
(-260390.38 -84981.138 0 285.90215 0 -60024.11)
(-8.2364204 -92086.263 0 0.28494696 0 -1.8349554)
(-238274.87 -82222.4 0 285.10082 0 -54920.717)
(-8.1998882 -89130.823 0 0.25332308 0 -1.8338227)
(-216919.63 -79467.814 0 284.85201 0 -49992.641)
(-8.1115957 -86183.738 0 0.29236175 0 -1.8044386)
(-196321.42 -76717.077 0 284.58009 0 -45239.27)
(-8.0100514 -83241.656 0 0.26270368 0 -1.7878495)
(-176477.98 -73970.441 0 284.27 0 -40660.086)
(-7.8535456 -80304.164 0 0.30738667 0 -1.7414213)
(-157387.45 -71228.217 0 283.9108 0 -36254.664)
(-7.6875484 -77371.445 0 0.27175525 0 -1.7113369)
(-139047.78 -68490.752 0 283.52828 0 -32022.52)
(-7.4673093 -74443.819 0 0.3155216 0 -1.6504126)
(-121456.95 -65758.368 0 283.10662 0 -27963.195)
(-7.2434451 -71521.64 0 0.26961774 0 -1.6093448)
(-104612.67 -63031.401 0 282.66462 0 -24076.155)
(-6.9672551 -68605.269 0 0.30992824 0 -1.5363062)
(-88512.66 -60310.153 0 282.18801 0 -20360.878)
(-6.6935696 -65695.055 0 0.25378543 0 -1.4861041)
(-73154.383 -57594.935 0 281.69301 0 -16816.775)
(-6.369782 -62791.336 0 0.29112953 0 -1.402766)
(-58535.301 -54886.017 0 281.16826 0 -13443.261)
(-6.0543164 -59894.433 0 0.22681234 0 -1.3448086)
(-44652.652 -52183.676 0 280.62748 0 -10239.698)
(-5.6912117 -57004.65 0 0.26259015 0 -1.2527588)
(-31503.664 -49488.147 0 280.06228 0 -7205.4466)
(-5.3421824 -54122.267 0 0.19288398 0 -1.1882996)
(-19085.379 -46799.671 0 279.48347 0 -4339.822)
(-4.9490799 -51247.551 0 0.22921398 0 -1.0891998)
(-7394.8218 -44118.452 0 278.88506 0 -1642.1392)
(-4.5777947 -48380.745 0 0.15755438 0 -1.0200555)
(3571.1303 -41444.704 0 278.2747 0 888.32423)
(-4.1710989 -45522.081 0 0.19666756 0 -0.91717645)
(13815.623 -38778.609 0 277.6477 0 3252.2933)
(-3.8035676 -42671.775 0 0.12621368 0 -0.84862013)
(23341.916 -36120.376 0 277.00738 0 5450.5208)
(-3.423835 -39830.045 0 0.17378738 0 -0.75001098)
(32153.306 -33470.223 0 276.33185 0 7483.7625)
(-3.1177556 -36997.116 0 0.11009073 0 -0.69407651)
(40253.171 -30828.427 0 275.60055 0 9352.7934)
(-2.8337033 -34173.26 0 0.1451445 0 -0.62043664)
(47644.902 -28195.31 0 274.72945 0 11058.377)
(-2.6439983 -31358.765 0 -0.016623378 0 -0.61398963)
(54331.671 -25570.788 0 273.72245 0 12601.245)
(-2.5039069 -28553.658 0 -0.28593933 0 -0.64381067)
(60315.893 -22953.931 0 272.6159 0 13981.964)
(-2.4868969 -25757.082 0 -0.83584284 0 -0.7667861)
(65597.65 -20342.58 0 271.42842 0 15200.557)
(-2.57011 -22966.551 0 -1.2340495 0 -0.87788297)
(70170.627 -17733.544 0 270.11404 0 16255.556)
(-2.7448291 -20176.792 0 -1.1003703 0 -0.88735371)
(74007.975 -15119.21 0 270.94192 0 17141.288)
(-2.8515178 -17374.806 0 -0.081865714 0 -0.67693465)
(77011.238 -12462.066 0 298.86677 0 17840.793)
(-2.8632059 -14514.003 0 0.833845 0 -0.46831406)
(78814.883 -9557.4497 0 505.17851 0 18304.63)
(-2.6964543 -11392.816 0 0.82553123 0 -0.43175147)
(78046.17 -5400.8412 0 1584.2612 0 18376.253)
(-2.3529802 -7117.9917 0 -0.28348645 0 -0.60841538)
(69882.402 4378.107 0 5517.5067 0 17399.979)
(-1.838481 2094.005 0 -1.4335285 0 -0.75507912)
(39832.306 33944.766 0 13439.245 0 12293.435)
(-1.4329245 29663.386 0 -1.6085673 0 -0.70188273)
(-26694.411 109511.23 0 -44581.338 0 -16448.25)
(-0.99732076 110031.79 0 -0.98794675 0 -0.45813865)
(-0.26747463 176834.78 0 -1.2725173 0 -0.35538276)
(416308.78 -110353.51 0 6521.3757 0 97576.19)
(837341.13 -124899.09 0 20298.041 0 197916.73)
(385806.25 -102756.61 0 -1184.9761 0 88758.755)
(790066 -86045.578 0 -5564.8044 0 181038.74)
(357497.59 -97052.16 0 -932.79479 0 82284.183)
(738186.61 -78963.426 0 -3672.042 0 169503.36)
(331544.79 -93486.325 0 -459.31872 0 76404.34)
(686906.53 -75823.627 0 -1533.8259 0 158162.93)
(306941.96 -90543.388 0 -321.18592 0 70758.64)
(637262.15 -73564.045 0 -912.14104 0 146850)
(283258.13 -87746.344 0 -290.77533 0 65300.16)
(589207.15 -71382.681 0 -767.68071 0 135793.72)
(260373.89 -84979.645 0 -285.55339 0 60020.385)
(542697.4 -69199.748 0 -739.31179 0 125067.25)
(238258.46 -82220.697 0 -284.75899 0 54917.009)
(497713.92 -67012.892 0 -733.64277 0 114687.76)
(216903.46 -79465.955 0 -284.48717 0 49988.993)
(454249.25 -64825.901 0 -732.03833 0 104657.82)
(196305.46 -76715.019 0 -284.21495 0 45235.671)
(412299.31 -62640.604 0 -730.88196 0 94977.33)
(176462.38 -73968.242 0 -283.8817 0 40656.577)
(371860.55 -60457.734 0 -729.89384 0 85645.537)
(157372.21 -71225.826 0 -283.52463 0 36251.234)
(332929.53 -58277.709 0 -728.70666 0 76661.728)
(139033.02 -68488.235 0 -283.12762 0 32019.206)
(295502.4 -56100.791 0 -727.59257 0 68024.956)
(121442.65 -65755.671 0 -282.71665 0 27959.986)
(259575.24 -53927.249 0 -726.24516 0 59734.384)
(104598.96 -63028.595 0 -282.27203 0 24073.082)
(225143.66 -51757.294 0 -724.97976 0 51788.926)
(88499.52 -60307.179 0 -281.8151 0 20357.932)
(192203.17 -49591.168 0 -723.47327 0 44187.623)
(73141.915 -57591.868 0 -281.32804 0 16813.982)
(160748.86 -47429.063 0 -722.06492 0 36929.26)
(58523.49 -54882.796 0 -280.82927 0 13440.614)
(130775.73 -45271.196 0 -720.41309 0 30012.766)
(44641.582 -52180.382 0 -280.30349 0 10237.218)
(102278.37 -43117.74 0 -718.87553 0 23436.806)
(31493.32 -49484.715 0 -279.76605 0 7203.1279)
(75251.326 -40968.884 0 -717.09426 0 17200.207)
(19075.824 -46796.187 0 -279.20429 0 4337.6815)
(49688.748 -38824.78 0 -715.44141 0 11301.532)
(7386.0364 -44114.848 0 -278.63065 0 1640.1706)
(25584.797 -36685.592 0 -713.54613 0 5739.5194)
(-3579.1172 -41441.067 0 -278.0352 0 -890.11209)
(2933.2298 -34551.453 0 -711.79114 0 512.63968)
(-13822.863 -38774.869 0 -277.42415 0 -3253.9124)
(-18272.138 -32422.508 0 -709.79669 0 -4380.4464)
(-23348.449 -36116.619 0 -276.79223 0 -5451.9786)
(-38037.877 -30298.888 0 -707.93701 0 -8941.3417)
(-32159.257 -33466.378 0 -276.14972 0 -7485.0939)
(-56370.496 -28180.753 0 -705.85193 0 -13171.465)
(-40258.659 -30824.601 0 -275.55344 0 -9354.0491)
(-73276.867 -26068.319 0 -703.88799 0 -17072.482)
(-47650.067 -28191.486 0 -275.09924 0 -11059.654)
(-88763.886 -23961.901 0 -701.93224 0 -20645.958)
(-54336.611 -25567.065 0 -274.79286 0 -12602.632)
(-102838.71 -21861.721 0 -700.4043 0 -23893.641)
(-60320.744 -22950.215 0 -274.36633 0 -13983.487)
(-115508.17 -19767.672 0 -699.27092 0 -26817.101)
(-65602.641 -20338.776 0 -273.15016 0 -15202.106)
(-126778.32 -17679.438 0 -698.6954 0 -29417.773)
(-70175.985 -17729.498 0 -270.69179 0 -16256.926)
(-136653.17 -15598.279 0 -699.44312 0 -31696.757)
(-74013.827 -15115.197 0 -270.03999 0 -17142.431)
(-145132.54 -13531.882 0 -708.35132 0 -33655.59)
(-77017.167 -12458.317 0 -297.5265 0 -17841.852)
(-152202.97 -11505.499 0 -758.33565 0 -35298.763)
(-78820.304 -9554.0788 0 -505.09387 0 -18305.861)
(-157804.81 -9584.5336 0 -1016.831 0 -36651.147)
(-78050.337 -5397.6569 0 -1586.0648 0 -18377.631)
(-161724.42 -7882.3904 0 -2280.0032 0 -37847.173)
(-69885.169 4381.3231 0 -5520.0356 0 -17401.201)
(-163297.9 -6064.8091 0 -7910.0875 0 -39509.536)
(-39834.691 33947.985 0 -13441.22 0 -12294.441)
(-161364.46 -375.93606 0 -27704.5 0 -43631.298)
(26692.952 109513.89 0 44579.843 0 16447.568)
(-156840.71 43548.354 0 -73718.433 0 -53205.957)
(-210536.82 203659.8 0 109794.88 0 -23248.139)
(1232366.9 -38657.447 0 38140.724 0 293194.06)
(1146461.6 -42250.544 0 3195.317 0 265305.44)
(1067730.9 -43945.952 0 67.488574 0 246415.02)
(992232 -43502.624 0 -213.30805 0 228927.39)
(919083.78 -42438.079 0 -141.65613 0 212063.57)
(848207.09 -41229.992 0 -109.16468 0 195714.91)
(779602.11 -39994.474 0 -99.69964 0 179885.17)
(713271.25 -38754.57 0 -97.779806 0 164578.49)
(649212.81 -37514.317 0 -97.826734 0 149795.76)
(587423.12 -36274.513 0 -98.384952 0 135536.48)
(527897.45 -35035.264 0 -99.125598 0 121799.61)
(470630.58 -33796.733 0 -99.954423 0 108583.99)
(415616.68 -32558.905 0 -100.86157 0 95888.265)
(362849.56 -31321.92 0 -101.82764 0 83711.014)
(312322.53 -30085.747 0 -102.85925 0 72050.694)
(264028.59 -28850.525 0 -103.94307 0 60905.687)
(217960.24 -27616.211 0 -105.08532 0 50274.267)
(174109.72 -26382.947 0 -106.27425 0 40154.642)
(132468.85 -25150.677 0 -107.51419 0 30544.923)
(93029.157 -23919.54 0 -108.79455 0 21443.161)
(55781.855 -22689.472 0 -110.11795 0 12847.324)
(20717.899 -21460.608 0 -111.47493 0 4755.3286)
(-12172.052 -20232.884 0 -112.8675 0 -2834.9815)
(-42897.546 -19006.429 0 -114.28481 0 -9925.807)
(-71468.398 -17781.196 0 -115.7353 0 -16519.415)
(-97894.625 -16557.321 0 -117.21376 0 -22618.117)
(-122186.57 -15334.914 0 -118.77822 0 -28224.311)
(-144354.9 -14114.254 0 -120.48354 0 -33340.474)
(-164410.6 -12895.427 0 -122.42622 0 -37969.159)
(-182364.5 -11678.19 0 -124.77991 0 -42112.911)
(-198227.19 -10462.198 0 -128.45319 0 -45774.379)
(-212010.51 -9249.2062 0 -137.62535 0 -48957.262)
(-223733.95 -8048.8323 0 -168.7578 0 -51669.857)
(-233442.38 -6904.0544 0 -281.84346 0 -53936.36)
(-241245.92 -6023.4732 0 -671.33698 0 -55827.059)
(-247368.53 -6409.8866 0 -1648.9336 0 -57465.568)
(-251700.18 -12429.777 0 -2260.6806 0 -58606.353)
(-250375.86 -38257.315 0 22610.383 0 -52561.263)
(-205176.63 -110208.36 0 180272.68 0 -5747.0656)
)
;

boundaryField
{
    left
    {
        type            calculated;
        value           nonuniform List<symmTensor> 4((-1357231.5 -60889.437 0 -133040.68 0 -343908.96) (-409274.21 -92089.968 0 -122782.26 0 -122782.26) (409258.91 -92088.891 0 122777.67 0 122777.67) (1357216 -60887.713 0 133039.26 0 343905.06));
    }
    right
    {
        type            calculated;
        value           nonuniform List<symmTensor> 4((-136.79801 1069.2657 0 -1810679.9 0 -417880.79) (-46.060351 1599.5495 0 -616471.86 0 -142273.37) (46.062978 1599.5375 0 616466.97 0 142272.24) (136.79715 1069.2525 0 1810681.5 0 417881.16));
    }
    top
    {
        type            calculated;
        value           nonuniform List<symmTensor> 
40
(
(1317682 -76.286208 0 42.13333 0 304090.18)
(1525264.2 -146.19984 0 53.250934 0 351996.32)
(1459295.9 -233.32269 0 54.724527 0 336773.21)
(1368646.8 -324.80128 0 54.715207 0 315854.2)
(1271166.4 -416.12047 0 54.193781 0 293358.6)
(1175347.7 -506.43419 0 53.476607 0 271246.42)
(1082362 -595.41661 0 52.61161 0 249787.99)
(992401.97 -682.82923 0 51.607963 0 229027.75)
(905478.26 -768.44372 0 50.4688 0 208968.17)
(821584.58 -852.0358 0 49.197076 0 189607.79)
(740713.88 -933.38609 0 47.796111 0 170945)
(662859.07 -1012.2809 0 46.269583 0 152978.16)
(588012.68 -1088.5131 0 44.6215 0 135705.53)
(516166.66 -1161.8824 0 42.85619 0 119125.27)
(447312.4 -1232.196 0 40.978289 0 103235.39)
(381440.74 -1299.2692 0 38.992728 0 88033.785)
(318542.01 -1362.9258 0 36.904724 0 73518.21)
(258605.99 -1422.9985 0 34.719764 0 59686.319)
(201622.04 -1479.3296 0 32.443593 0 46535.65)
(147579.02 -1531.771 0 30.082194 0 34063.64)
(96465.419 -1580.185 0 27.641775 0 22267.629)
(48269.304 -1624.4444 0 25.12875 0 11144.869)
(2978.4018 -1664.433 0 22.549728 0 692.52728)
(-39419.892 -1700.0456 0 19.911491 0 -9092.3031)
(-78938.483 -1731.1886 0 17.220984 0 -18212.599)
(-115590.54 -1757.7802 0 14.485291 0 -26671.397)
(-149389.56 -1779.7498 0 11.711669 0 -34471.81)
(-180349.6 -1797.0395 0 8.907679 0 -41617.082)
(-208485.47 -1809.6046 0 6.0812705 0 -48110.628)
(-233812.21 -1817.4159 0 3.2405215 0 -53955.916)
(-256343.35 -1820.4597 0 0.39281834 0 -59156.068)
(-276088.54 -1818.7337 0 -2.4557731 0 -63713.306)
(-293051.29 -1812.2417 0 -5.2996471 0 -67628.443)
(-307232.64 -1800.9987 0 -8.1315177 0 -70901.717)
(-318752.02 -1785.0475 0 -10.949688 0 -73560.685)
(-328823.33 -1764.3668 0 -13.833476 0 -75885.5)
(-347714.27 -1737.9202 0 -17.553603 0 -80245.804)
(-423141.3 -1695.4565 0 -25.73694 0 -97653.93)
(-900006.3 -1589.4288 0 -64.601479 0 -207708.67)
(-1837380.9 -1058.8474 0 -138.58231 0 -424042.95)
)
;
    }
    bottom
    {
        type            calculated;
        value           nonuniform List<symmTensor> 
40
(
(-1317693.5 -76.277923 0 -42.127139 0 -304092.83)
(-1525277.9 -146.19663 0 -53.243561 0 -351999.48)
(-1459310.5 -233.32184 0 -54.716639 0 -336776.6)
(-1368662.1 -324.80107 0 -54.707006 0 -315857.72)
(-1271181.9 -416.12042 0 -54.185441 0 -293362.17)
(-1175363.3 -506.43419 0 -53.468212 0 -271250.02)
(-1082377.6 -595.41666 0 -52.60321 0 -249791.59)
(-992417.53 -682.82934 0 -51.599595 0 -229031.34)
(-905493.68 -768.44389 0 -50.4605 0 -208971.73)
(-821599.81 -852.03604 0 -49.188882 0 -189611.31)
(-740728.85 -933.3864 0 -47.788057 0 -170948.45)
(-662873.72 -1012.2813 0 -46.261702 0 -152981.53)
(-588026.95 -1088.5136 0 -44.613825 0 -135708.82)
(-516180.49 -1161.8829 0 -42.848751 0 -119128.46)
(-447325.74 -1232.1966 0 -40.971113 0 -103238.47)
(-381453.55 -1299.2698 0 -38.985841 0 -88036.738)
(-318554.23 -1362.9265 0 -36.89815 0 -73521.029)
(-258617.6 -1422.9993 0 -34.713524 0 -59688.995)
(-201632.98 -1479.3304 0 -32.437706 0 -46538.174)
(-147589.28 -1531.7719 0 -30.076675 0 -34066.006)
(-96474.968 -1580.1859 0 -27.636639 0 -22269.832)
(-48278.13 -1624.4453 0 -25.124004 0 -11146.905)
(-2986.5007 -1664.4338 0 -22.545373 0 -694.39524)
(39412.505 -1700.0464 0 -19.907519 0 9090.5994)
(78931.784 -1731.1894 0 -17.217381 0 18211.054)
(115584.5 -1757.7809 0 -14.482042 0 26670.004)
(149384.14 -1779.7507 0 -11.708758 0 34470.561)
(180344.64 -1797.041 0 -8.9050162 0 41615.94)
(208480.62 -1809.6065 0 -6.0786619 0 48109.509)
(233807 -1817.4175 0 -3.2377205 0 53954.714)
(256337.61 -1820.4592 0 -0.38972859 0 59154.742)
(276082.76 -1818.7303 0 2.4588803 0 63711.973)
(293046.08 -1812.2377 0 5.3024483 0 67627.241)
(307228.07 -1800.9979 0 8.1339729 0 70900.664)
(318747.39 -1785.0513 0 10.952177 0 73559.617)
(328817.89 -1764.3726 0 13.836406 0 75884.243)
(347708.67 -1737.9231 0 17.55661 0 80244.515)
(423137.38 -1695.4557 0 25.739044 0 97653.028)
(900004.67 -1589.4285 0 64.602358 0 207708.29)
(1837379.8 -1058.8516 0 138.58288 0 424042.71)
)
;
    }
    frontAndBack
    {
        type            empty;
    }
}


// ************************************************************************* //
