/*--------------------------------*- C++ -*----------------------------------*\
| =========                 |                                                 |
| \\      /  F ield         | OpenFOAM: The Open Source CFD Toolbox           |
|  \\    /   O peration     | Version:  2512                                  |
|   \\  /    A nd           | Website:  www.openfoam.com                      |
|    \\/     M anipulation  |                                                 |
\*---------------------------------------------------------------------------*/
FoamFile
{
    version     2.0;
    format      ascii;
    arch        "LSB;label=32;scalar=64";
    class       volScalarField;
    location    "0.2";
    object      p;
}
// * * * * * * * * * * * * * * * * * * * * * * * * * * * * * * * * * * * * * //

dimensions      [0 2 -2 0 0 0 0];

internalField   nonuniform List<scalar> 
400
(
1.63334e-06
-0.0050498
-0.0114253
-0.0162608
-0.0178862
-0.0155935
-0.00932041
0.000533851
0.0132364
0.0278154
0.0431361
0.0579746
0.0711026
0.0813943
0.0879591
0.0902993
0.0884849
0.0833482
0.076746
0.0716404
0.00497395
-0.000220272
-0.00589648
-0.00979334
-0.0108766
-0.00867154
-0.00313675
0.0054054
0.0163523
0.0288936
0.042074
0.0548566
0.0662001
0.075152
0.0809635
0.0832189
0.0819633
0.0777849
0.0718993
0.0666561
0.0116695
0.00516113
-0.00094798
-0.00459594
-0.00547134
-0.00342538
0.00149945
0.00900691
0.0185838
0.0295475
0.0410886
0.0523202
0.0623415
0.0703166
0.0755709
0.0776989
0.0766493
0.0726829
0.0663133
0.0597153
0.0175717
0.00903676
0.00155079
-0.00258761
-0.00363412
-0.00175234
0.0028929
0.00997301
0.0189987
0.0293461
0.0402793
0.050982
0.0606058
0.0683358
0.0734743
0.0755388
0.0743272
0.0697897
0.0619159
0.0531854
0.0209993
0.0102293
0.00103638
-0.00386427
-0.0051723
-0.00332655
0.00137893
0.00855624
0.0177029
0.0282112
0.0393714
0.0503851
0.0603978
0.0685515
0.0740599
0.0763064
0.0749061
0.0695218
0.059747
0.0485902
0.0207374
0.00769404
-0.00325948
-0.00892024
-0.0103705
-0.00830161
-0.00313716
0.00466274
0.0145627
0.0259468
0.0381033
0.0502194
0.0613958
0.0706863
0.077166
0.0800348
0.0786885
0.0724968
0.0607059
0.0469749
0.0156956
0.000375713
-0.0122778
-0.0185339
-0.0198496
-0.0171713
-0.0110597
-0.00205626
0.00926024
0.0222546
0.0362001
0.0502525
0.0634442
0.0747068
0.0829312
0.0870793
0.0862706
0.0795319
0.0657379
0.049296
0.00472201
-0.0128694
-0.0270787
-0.0336181
-0.0343638
-0.0305521
-0.0229003
-0.0120407
0.0014025
0.016777
0.0333452
0.0502323
0.0663955
0.080623
0.0915795
0.0979239
0.0984137
0.0916269
0.0759623
0.0566676
-0.0135371
-0.0333753
-0.0488899
-0.0552186
-0.0547634
-0.0491246
-0.0392111
-0.0257568
-0.00942438
0.00913558
0.0291987
0.0498839
0.0700887
0.0884548
0.103387
0.113169
0.116074
0.110056
0.0928345
0.070575
-0.0407847
-0.0627838
-0.0791749
-0.0845277
-0.0819635
-0.0735715
-0.0605071
-0.0436145
-0.0235752
-0.000999521
0.0234517
0.0489445
0.0743643
0.0982329
0.118683
0.133547
0.140462
0.136493
0.118337
0.0931151
-0.0792763
-0.103196
-0.119707
-0.122875
-0.116869
-0.104463
-0.0871291
-0.0658252
-0.041211
-0.0137901
0.0159224
0.0472316
0.0791015
0.110008
0.137841
0.15993
0.173097
0.173148
0.155221
0.127318
-0.132162
-0.157404
-0.172652
-0.171677
-0.160235
-0.142065
-0.119036
-0.0921946
-0.0621037
-0.0290569
0.00669988
0.0447486
0.0842806
0.123869
0.161266
0.193313
0.215846
0.222936
0.207344
0.177638
-0.204138
-0.229278
-0.240666
-0.232313
-0.212421
-0.186052
-0.155513
-0.12185
-0.085394
-0.0460707
-0.0036857
0.0418106
0.0900526
0.139949
0.189345
0.234741
0.270912
0.289655
0.280172
0.250781
-0.302801
-0.324452
-0.326954
-0.305839
-0.272978
-0.235084
-0.194795
-0.152932
-0.109346
-0.0633634
-0.0141238
0.0391306
0.0967623
0.158367
0.222294
0.285097
0.340683
0.378142
0.381591
0.357296
-0.44117
-0.45136
-0.435226
-0.392458
-0.340024
-0.28627
-0.233684
-0.182349
-0.131217
-0.0786792
-0.0229337
0.0377598
0.104828
0.179017
0.259826
0.34467
0.427327
0.494273
0.522957
0.514243
-0.640446
-0.621941
-0.569101
-0.490549
-0.409401
-0.334627
-0.267305
-0.205784
-0.147428
-0.0892474
-0.0281921
0.0387267
0.114338
0.201087
0.300526
0.412315
0.531825
0.644208
0.719336
0.747384
-0.93452
-0.851844
-0.728968
-0.593559
-0.472669
-0.372097
-0.288881
-0.217958
-0.154123
-0.0925006
-0.0285475
0.0421347
0.124016
0.221764
0.340094
0.482934
0.650477
0.830904
0.98928
1.09498
-1.42354
-1.16953
-0.901305
-0.679749
-0.510887
-0.384384
-0.288467
-0.212485
-0.147669
-0.0869837
-0.0244595
0.0455329
0.128998
0.233035
0.366483
0.539924
0.763805
1.04368
1.36676
1.6666
-2.48522
-1.6382
-1.04375
-0.703146
-0.491552
-0.350737
-0.253876
-0.183051
-0.125727
-0.0732181
-0.0188747
0.043355
0.120203
0.220531
0.357316
0.549683
0.826026
1.24319
1.92212
2.85197
-4.49083
-2.26485
-1.15017
-0.679161
-0.434191
-0.289537
-0.201031
-0.142458
-0.0978127
-0.0575166
-0.0150077
0.0354544
0.100433
0.189514
0.319012
0.517693
0.837495
1.41017
2.63839
4.96005
)
;

boundaryField
{
    movingWall
    {
        type            zeroGradient;
    }
    fixedWalls
    {
        type            zeroGradient;
    }
    frontAndBack
    {
        type            empty;
    }
}


// ************************************************************************* //
