/*--------------------------------*- C++ -*----------------------------------*\
| =========                 |                                                 |
| \\      /  F ield         | OpenFOAM: The Open Source CFD Toolbox           |
|  \\    /   O peration     | Version:  2512                                  |
|   \\  /    A nd           | Website:  www.openfoam.com                      |
|    \\/     M anipulation  |                                                 |
\*---------------------------------------------------------------------------*/
FoamFile
{
    version     2.0;
    format      ascii;
    arch        "LSB;label=32;scalar=64";
    class       surfaceScalarField;
    location    "0.2";
    object      phi;
}
// * * * * * * * * * * * * * * * * * * * * * * * * * * * * * * * * * * * * * //

dimensions      [0 3 -1 0 0 0 0];

oriented        oriented;

internalField   nonuniform List<scalar> 
760
(
6.90266e-09
-6.91634e-09
-3.20125e-08
3.89148e-08
-1.22645e-07
9.06321e-08
-2.50612e-07
1.27967e-07
-3.973e-07
1.46687e-07
-5.4474e-07
1.47441e-07
-6.77299e-07
1.32558e-07
-7.82319e-07
1.0502e-07
-8.50358e-07
6.80393e-08
-8.75309e-07
2.49508e-08
-8.54567e-07
-2.07418e-08
-7.89281e-07
-6.5286e-08
-6.84629e-07
-1.04652e-07
-5.50011e-07
-1.34617e-07
-3.98989e-07
-1.51022e-07
-2.48744e-07
-1.50244e-07
-1.18797e-07
-1.29947e-07
-2.85173e-08
-9.02797e-08
8.43775e-09
-3.69546e-08
8.43791e-09
-3.76762e-08
3.07598e-08
-1.84451e-07
1.85689e-07
-4.37408e-07
3.43589e-07
-7.6655e-07
4.57109e-07
-1.13254e-06
5.1268e-07
-1.4956e-06
5.10501e-07
-1.8199e-06
4.56852e-07
-2.07575e-06
3.60874e-07
-2.24078e-06
2.33068e-07
-2.30055e-06
8.47239e-08
-2.24914e-06
-7.2158e-08
-2.08964e-06
-2.24785e-07
-1.83467e-06
-3.59624e-07
-1.50648e-06
-4.62806e-07
-1.13644e-06
-5.21061e-07
-7.63338e-07
-5.23342e-07
-4.29998e-07
-4.63287e-07
-1.77372e-07
-3.42905e-07
-3.44248e-08
-1.79902e-07
-2.59866e-08
-9.30782e-08
1.23838e-07
-3.57984e-07
4.50594e-07
-7.65123e-07
7.50728e-07
-1.26831e-06
9.6029e-07
-1.81349e-06
1.05787e-06
-2.34668e-06
1.04369e-06
-2.81901e-06
9.29182e-07
-3.18979e-06
7.31652e-07
-3.42821e-06
4.71488e-07
-3.51441e-06
1.70924e-07
-3.44028e-06
-1.46287e-07
-3.21017e-06
-4.54893e-07
-2.84143e-06
-7.28361e-07
-2.36451e-06
-9.3973e-07
-1.8221e-06
-1.06347e-06
-1.26686e-06
-1.07859e-06
-7.56943e-07
-9.73198e-07
-3.49039e-07
-7.50809e-07
-8.85911e-08
-4.40349e-07
-1.14578e-07
-1.45145e-07
2.68982e-07
-5.2526e-07
8.3071e-07
-1.08079e-06
1.30626e-06
-1.74563e-06
1.62513e-06
-2.45119e-06
1.76343e-06
-3.13196e-06
1.72446e-06
-3.72982e-06
1.52704e-06
-4.19678e-06
1.19861e-06
-4.49666e-06
7.71367e-07
-4.60609e-06
2.80358e-07
-4.51536e-06
-2.3702e-07
-4.22917e-06
-7.41089e-07
-3.76733e-06
-1.19019e-06
-3.16512e-06
-1.54194e-06
-2.47263e-06
-1.75596e-06
-1.75262e-06
-1.79859e-06
-1.0763e-06
-1.64952e-06
-5.16601e-07
-1.31051e-06
-1.39947e-07
-8.17003e-07
-2.54524e-07
-1.93364e-07
4.62346e-07
-6.84173e-07
1.32152e-06
-1.38358e-06
2.00566e-06
-2.20354e-06
2.44509e-06
-3.05995e-06
2.61984e-06
-3.8766e-06
2.5411e-06
-4.58803e-06
2.23848e-06
-5.14137e-06
1.75195e-06
-5.49712e-06
1.12711e-06
-5.6297e-06
4.1294e-07
-5.528e-06
-3.38721e-07
-5.19613e-06
-1.07295e-06
-4.65444e-06
-1.73188e-06
-3.94042e-06
-2.25596e-06
-3.10894e-06
-2.58745e-06
-2.23113e-06
-2.6764e-06
-1.39107e-06
-2.48958e-06
-6.79993e-07
-2.02159e-06
-1.88581e-07
-1.30841e-06
-4.43105e-07
-2.39882e-07
7.02227e-07
-8.39179e-07
1.92082e-06
-1.68005e-06
2.84654e-06
-2.65125e-06
3.41628e-06
-3.65242e-06
3.62102e-06
-4.59711e-06
3.48579e-06
-5.41406e-06
3.05543e-06
-6.04738e-06
2.38527e-06
-6.45603e-06
1.53576e-06
-6.61329e-06
5.70201e-07
-6.50674e-06
-4.45263e-07
-6.13894e-06
-1.44076e-06
-5.52881e-06
-2.342e-06
-4.7136e-06
-3.07117e-06
-3.7506e-06
-3.55044e-06
-2.71788e-06
-3.70913e-06
-1.71263e-06
-3.49482e-06
-8.46537e-07
-2.88768e-06
-2.37606e-07
-1.91735e-06
-6.80711e-07
-2.87069e-07
9.89297e-07
-9.95691e-07
2.62944e-06
-1.97748e-06
3.82832e-06
-3.09655e-06
4.53535e-06
-4.23593e-06
4.7604e-06
-5.29983e-06
4.5497e-06
-6.2131e-06
3.96869e-06
-6.9191e-06
3.09127e-06
-7.37725e-06
1.99391e-06
-7.561e-06
7.53949e-07
-7.45681e-06
-5.49449e-07
-7.06463e-06
-1.83294e-06
-6.39982e-06
-3.00681e-06
-5.49646e-06
-3.97454e-06
-4.41124e-06
-4.63565e-06
-3.22694e-06
-4.89344e-06
-2.05348e-06
-4.66828e-06
-1.02493e-06
-3.91623e-06
-2.90562e-07
-2.65171e-06
-9.71273e-07
-3.3716e-07
1.32646e-06
-1.15866e-06
3.45093e-06
-2.28155e-06
4.95121e-06
-3.54317e-06
5.79697e-06
-4.80996e-06
6.02719e-06
-5.97871e-06
5.71845e-06
-6.97333e-06
4.96331e-06
-7.73971e-06
3.85765e-06
-8.24058e-06
2.49478e-06
-8.45138e-06
9.64752e-07
-8.35802e-06
-6.42817e-07
-7.95681e-06
-2.23414e-06
-7.25701e-06
-3.70661e-06
-6.28569e-06
-4.94586e-06
-5.09453e-06
-5.82681e-06
-3.7671e-06
-6.22087e-06
-2.42411e-06
-6.01126e-06
-1.22344e-06
-5.1169e-06
-3.50963e-07
-3.52419e-06
-1.32224e-06
-3.92421e-07
1.71888e-06
-1.3325e-06
4.39101e-06
-2.59566e-06
6.21437e-06
-3.9893e-06
7.19061e-06
-5.36405e-06
7.40194e-06
-6.61273e-06
6.96713e-06
-7.66305e-06
6.01363e-06
-8.46825e-06
4.66284e-06
-8.99838e-06
3.02491e-06
-9.23367e-06
1.20005e-06
-9.16056e-06
-7.15932e-07
-8.77093e-06
-2.62377e-06
-8.065e-06
-4.41255e-06
-7.05788e-06
-5.95298e-06
-5.78983e-06
-7.09486e-06
-4.33862e-06
-7.67208e-06
-2.83123e-06
-7.51865e-06
-1.44943e-06
-6.4987e-06
-4.22365e-07
-4.55125e-06
-1.7446e-06
-4.5568e-07
2.17456e-06
-1.52182e-06
5.45715e-06
-2.92094e-06
7.61349e-06
-4.42645e-06
8.69612e-06
-5.87539e-06
8.85088e-06
-7.16258e-06
8.25432e-06
-8.2267e-06
7.07775e-06
-9.0351e-06
5.47125e-06
-9.57076e-06
3.56057e-06
-9.8225e-06
1.45179e-06
-9.77917e-06
-7.59261e-07
-9.42785e-06
-2.97509e-06
-8.75667e-06
-5.08373e-06
-7.76285e-06
-6.94681e-06
-6.46645e-06
-8.39126e-06
-4.92933e-06
-9.2092e-06
-3.27595e-06
-9.17203e-06
-1.70913e-06
-8.06553e-06
-5.08713e-07
-5.75167e-06
-2.25331e-06
-5.31216e-07
2.70577e-06
-1.73243e-06
6.65836e-06
-3.25616e-06
9.13722e-06
-4.83744e-06
1.02774e-05
-6.30505e-06
1.03185e-05
-7.56558e-06
9.51485e-06
-8.57912e-06
8.09129e-06
-9.33621e-06
6.22833e-06
-9.83961e-06
4.06397e-06
-1.00916e-05
1.70377e-06
-1.00861e-05
-7.64705e-07
-9.80595e-06
-3.25528e-06
-9.22451e-06
-5.66517e-06
-8.31474e-06
-7.85657e-06
-7.06575e-06
-9.64025e-06
-5.50887e-06
-1.07661e-05
-3.75106e-06
-1.09298e-05
-2.00747e-06
-9.80912e-06
-6.14918e-07
-7.14422e-06
-2.86823e-06
-6.26122e-07
3.3319e-06
-1.97257e-06
8.00481e-06
-3.59645e-06
1.07611e-05
-5.19192e-06
1.18729e-05
-6.5909e-06
1.17175e-05
-7.72751e-06
1.06515e-05
-8.59757e-06
8.96135e-06
-9.22567e-06
6.85644e-06
-9.64204e-06
4.48034e-06
-9.86748e-06
1.92921e-06
-9.90445e-06
-7.27738e-07
-9.73279e-06
-3.42694e-06
-9.31038e-06
-6.08758e-06
-8.58049e-06
-8.58646e-06
-7.48957e-06
-1.07312e-05
-6.01945e-06
-1.22362e-05
-4.23593e-06
-1.27134e-05
-2.34716e-06
-1.16979e-05
-7.47687e-07
-8.74369e-06
-3.61592e-06
-7.52246e-07
4.08414e-06
-2.253e-06
9.50556e-06
-3.9281e-06
1.24362e-05
-5.43575e-06
1.33805e-05
-6.63413e-06
1.29158e-05
-7.50897e-06
1.15263e-05
-8.10991e-06
9.56228e-06
-8.50692e-06
7.25345e-06
-8.76405e-06
4.73747e-06
-8.92458e-06
2.08973e-06
-9.00255e-06
-6.49765e-07
-8.97797e-06
-3.45152e-06
-8.79497e-06
-6.27059e-06
-8.36543e-06
-9.016e-06
-7.58361e-06
-1.1513e-05
-6.36036e-06
-1.34594e-05
-4.68634e-06
-1.43874e-05
-2.72574e-06
-1.36585e-05
-9.16594e-07
-1.05528e-05
-4.53251e-06
-9.28407e-07
5.01255e-06
-2.58295e-06
1.11601e-05
-4.21342e-06
1.40667e-05
-5.46764e-06
1.46347e-05
-6.27347e-06
1.37217e-05
-6.7026e-06
1.19554e-05
-6.87789e-06
9.73757e-06
-6.92253e-06
7.29809e-06
-6.93606e-06
4.751e-06
-6.9842e-06
2.13788e-06
-7.09409e-06
-5.39879e-07
-7.25007e-06
-3.29553e-06
-7.38898e-06
-6.13168e-06
-7.39684e-06
-9.00814e-06
-7.11397e-06
-1.17959e-05
-6.36206e-06
-1.42114e-05
-5.0139e-06
-1.57355e-05
-3.12677e-06
-1.55456e-05
-1.13465e-06
-1.2545e-05
-5.66717e-06
-1.17909e-06
6.19164e-06
-2.95151e-06
1.29325e-05
-4.35171e-06
1.54669e-05
-5.08996e-06
1.5373e-05
-5.23868e-06
1.38704e-05
-4.99725e-06
1.1714e-05
-4.57477e-06
9.31509e-06
-4.14462e-06
6.86794e-06
-3.8332e-06
4.43958e-06
-3.72126e-06
2.02594e-06
-3.84654e-06
-4.14595e-07
-4.2024e-06
-2.93967e-06
-4.73037e-06
-5.60371e-06
-5.30759e-06
-8.43092e-06
-5.73506e-06
-1.13684e-05
-5.74262e-06
-1.42038e-05
-5.04372e-06
-1.64345e-05
-3.49436e-06
-1.7095e-05
-1.41356e-06
-1.46258e-05
-7.08073e-06
-1.51508e-06
7.70673e-06
-3.26838e-06
1.46858e-05
-4.08689e-06
1.62854e-05
-3.91195e-06
1.51981e-05
-3.07225e-06
1.30307e-05
-1.92706e-06
1.05688e-05
-7.60618e-07
8.14865e-06
2.29096e-07
5.87823e-06
9.13889e-07
3.75479e-06
1.21605e-06
1.72378e-06
1.09546e-06
-2.94006e-07
5.46413e-07
-2.39063e-06
-3.94097e-07
-4.6632e-06
-1.62515e-06
-7.19987e-06
-2.94891e-06
-1.00446e-05
-4.03664e-06
-1.31161e-05
-4.42957e-06
-1.60415e-05
-3.66726e-06
-1.78573e-05
-1.73825e-06
-1.65548e-05
-8.81897e-06
-1.88268e-06
9.58941e-06
-3.21447e-06
1.60176e-05
-2.80528e-06
1.58762e-05
-1.17337e-06
1.35662e-05
9.86252e-07
1.08711e-05
3.1855e-06
8.36956e-06
5.13129e-06
6.20286e-06
6.66096e-06
4.34856e-06
7.68821e-06
2.72753e-06
8.16614e-06
1.24586e-06
8.06604e-06
-1.93904e-07
7.36988e-06
-1.69447e-06
6.07626e-06
-3.36958e-06
4.22381e-06
-5.34742e-06
1.93915e-06
-7.75997e-06
-4.85291e-07
-1.06916e-05
-2.49401e-06
-1.40328e-05
-3.23847e-06
-1.71128e-05
-2.01117e-06
-1.77821e-05
-1.08301e-05
-2.09779e-06
1.16872e-05
-1.84625e-06
1.57661e-05
8.93596e-07
1.31363e-05
4.53449e-06
9.92526e-06
8.12439e-06
7.28119e-06
1.12503e-05
5.24368e-06
1.37592e-05
3.69398e-06
1.56134e-05
2.49429e-06
1.68183e-05
1.52263e-06
1.73841e-05
6.80108e-07
1.73071e-05
-1.16924e-07
1.6562e-05
-9.49391e-07
1.5102e-05
-1.90959e-06
1.28718e-05
-3.11719e-06
9.84585e-06
-4.73402e-06
6.11728e-06
-6.96307e-06
2.08249e-06
-9.998e-06
-1.22321e-06
-1.38071e-05
-1.98286e-06
-1.70224e-05
-1.2813e-05
-8.8114e-07
1.25683e-05
3.89189e-06
1.0993e-05
1.00858e-05
6.94244e-06
1.55685e-05
4.44255e-06
1.99404e-05
2.9093e-06
2.32673e-05
1.91673e-06
2.57027e-05
1.2586e-06
2.73922e-05
8.04783e-07
2.84453e-05
4.6955e-07
2.89282e-05
1.97192e-07
2.88634e-05
-5.20982e-08
2.82273e-05
-3.13266e-07
2.6945e-05
-6.27302e-07
2.48817e-05
-1.05389e-06
2.18384e-05
-1.69079e-06
1.75749e-05
-2.69954e-06
1.19224e-05
-4.34544e-06
5.22177e-06
-7.10654e-06
-3.08825e-07
-1.14918e-05
-1.31218e-05
1.25683e-05
2.35614e-05
3.05038e-05
3.49464e-05
3.78557e-05
3.97724e-05
4.1031e-05
4.18358e-05
4.23053e-05
4.25025e-05
4.24504e-05
4.21372e-05
4.15099e-05
4.0456e-05
3.87652e-05
3.60656e-05
3.17202e-05
2.46137e-05
1.31218e-05
)
;

boundaryField
{
    movingWall
    {
        type            calculated;
        value           uniform 0;
    }
    fixedWalls
    {
        type            calculated;
        value           uniform 0;
    }
    frontAndBack
    {
        type            empty;
    }
}


// ************************************************************************* //
