/*--------------------------------*- C++ -*----------------------------------*\
| =========                 |                                                 |
| \\      /  F ield         | OpenFOAM: The Open Source CFD Toolbox           |
|  \\    /   O peration     | Version:  2512                                  |
|   \\  /    A nd           | Website:  www.openfoam.com                      |
|    \\/     M anipulation  |                                                 |
\*---------------------------------------------------------------------------*/
FoamFile
{
    version     2.0;
    format      ascii;
    arch        "LSB;label=32;scalar=64";
    class       volVectorField;
    location    "0.2";
    object      U;
}
// * * * * * * * * * * * * * * * * * * * * * * * * * * * * * * * * * * * * * //

dimensions      [0 1 -1 0 0 0 0];

internalField   nonuniform List<vector> 
400
(
(0.000188113 -0.00018867 0)
(-5.18979e-05 2.18826e-05 0)
(-0.00137024 0.000279952 0)
(-0.00361891 0.000458247 0)
(-0.00644097 0.000547162 0)
(-0.00945411 0.00055814 0)
(-0.0123156 0.000505238 0)
(-0.0147397 0.000402553 0)
(-0.0165044 0.000263338 0)
(-0.0174532 0.000100245 0)
(-0.017498 -7.38293e-05 0)
(-0.0166233 -0.000244863 0)
(-0.0148917 -0.000397147 0)
(-0.012449 -0.000513266 0)
(-0.00952661 -0.000574818 0)
(-0.00643645 -0.000564116 0)
(-0.00355492 -0.000466842 0)
(-0.00128963 -0.00027568 0)
(2.71538e-06 -8.786e-06 0)
(0.000199648 0.000199294 0)
(-3.09713e-06 3.06163e-05 0)
(-0.00173289 0.0017417 0)
(-0.00578613 0.00365772 0)
(-0.0117748 0.00506236 0)
(-0.0189169 0.00577002 0)
(-0.0263874 0.00578918 0)
(-0.0334166 0.0052019 0)
(-0.0393417 0.00412028 0)
(-0.0436377 0.0026686 0)
(-0.0459338 0.000977813 0)
(-0.0460236 -0.000813833 0)
(-0.0438768 -0.00255858 0)
(-0.0396492 -0.00409875 0)
(-0.0336906 -0.00527065 0)
(-0.0265425 -0.00591508 0)
(-0.0189178 -0.0058963 0)
(-0.0116525 -0.00513193 0)
(-0.0056234 -0.00364237 0)
(-0.00161796 -0.00166583 0)
(1.95647e-05 2.92622e-05 0)
(-0.000257775 0.00132434 0)
(-0.0038154 0.00581418 0)
(-0.0106327 0.0102026 0)
(-0.0199917 0.0133418 0)
(-0.0307498 0.0148598 0)
(-0.0417872 0.0147494 0)
(-0.0520614 0.0131781 0)
(-0.0606669 0.0103999 0)
(-0.0668819 0.00671236 0)
(-0.0701957 0.00243805 0)
(-0.0703251 -0.0020787 0)
(-0.0672297 -0.00647131 0)
(-0.0611249 -0.0103536 0)
(-0.0524903 -0.013332 0)
(-0.0420647 -0.0150331 0)
(-0.0308161 -0.0151498 0)
(-0.0198744 -0.013511 0)
(-0.0104354 -0.010183 0)
(-0.00366192 -0.00565048 0)
(-0.000225684 -0.00118578 0)
(-0.0004768 0.00371311 0)
(-0.00582067 0.0122831 0)
(-0.0153333 0.0198618 0)
(-0.0278822 0.0250758 0)
(-0.0419326 0.0274428 0)
(-0.0561047 0.0269778 0)
(-0.0691533 0.0239683 0)
(-0.0800089 0.0188504 0)
(-0.0878234 0.0121405 0)
(-0.0919971 0.0044038 0)
(-0.0921957 -0.00375561 0)
(-0.0883657 -0.0116958 0)
(-0.08075 -0.0187436 0)
(-0.0698998 -0.024216 0)
(-0.056675 -0.0274673 0)
(-0.0422174 -0.0279667 0)
(-0.0278844 -0.0254113 0)
(-0.0151671 -0.0198754 0)
(-0.00565181 -0.0120284 0)
(-0.000435631 -0.00347338 0)
(-0.000666757 0.0071069 0)
(-0.00770393 0.0210105 0)
(-0.0198325 0.0324364 0)
(-0.035467 0.0399603 0)
(-0.0526471 0.0431122 0)
(-0.0697327 0.0420103 0)
(-0.0853069 0.0371192 0)
(-0.098183 0.0291 0)
(-0.107434 0.0187225 0)
(-0.112406 0.00682279 0)
(-0.112732 -0.00570884 0)
(-0.108335 -0.0179283 0)
(-0.0994567 -0.028844 0)
(-0.086672 -0.0374442 0)
(-0.0709064 -0.0427612 0)
(-0.0534272 -0.043979 0)
(-0.0357969 -0.0405884 0)
(-0.0198205 -0.0325835 0)
(-0.00756709 -0.0207079 0)
(-0.000619491 -0.00675982 0)
(-0.00084562 0.0114415 0)
(-0.00953113 0.0319162 0)
(-0.0242361 0.047849 0)
(-0.0428983 0.0578918 0)
(-0.0631083 0.0617203 0)
(-0.0829621 0.0596647 0)
(-0.100893 0.0524451 0)
(-0.115635 0.0409998 0)
(-0.126221 0.0263818 0)
(-0.131975 0.00971345 0)
(-0.132505 -0.00782279 0)
(-0.127708 -0.0249753 0)
(-0.11779 -0.0404214 0)
(-0.103304 -0.0527921 0)
(-0.0851895 -0.0607453 0)
(-0.0647969 -0.0630993 0)
(-0.0438788 -0.059032 0)
(-0.0245794 -0.048331 0)
(-0.00951059 -0.0316877 0)
(-0.000800118 -0.0110122 0)
(-0.0010291 0.0167052 0)
(-0.0113846 0.0449879 0)
(-0.0286761 0.0660787 0)
(-0.0503319 0.0788165 0)
(-0.0734708 0.0831676 0)
(-0.0959313 0.0798054 0)
(-0.116028 0.069804 0)
(-0.13246 0.0544385 0)
(-0.144265 0.035073 0)
(-0.15078 0.0131169 0)
(-0.151607 -0.00996797 0)
(-0.146605 -0.0326393 0)
(-0.135914 -0.0532496 0)
(-0.12001 -0.0700555 0)
(-0.0997834 -0.0812863 0)
(-0.0766113 -0.0852961 0)
(-0.0524053 -0.0808084 0)
(-0.0296635 -0.0672387 0)
(-0.0116088 -0.045076 0)
(-0.000999306 -0.0162719 0)
(-0.00123163 0.0229343 0)
(-0.0133434 0.0602729 0)
(-0.0332707 0.0871308 0)
(-0.0578739 0.102663 0)
(-0.0837754 0.107302 0)
(-0.108578 0.102225 0)
(-0.130531 0.0889783 0)
(-0.148363 0.0692413 0)
(-0.161184 0.0447093 0)
(-0.168393 0.0170647 0)
(-0.169608 -0.0119888 0)
(-0.164647 -0.0406611 0)
(-0.153549 -0.0670128 0)
(-0.136648 -0.0889274 0)
(-0.114696 -0.104157 0)
(-0.0890077 -0.110479 0)
(-0.0615873 -0.105982 0)
(-0.0352771 -0.0894903 0)
(-0.0139884 -0.0610833 0)
(-0.00123875 -0.0226532 0)
(-0.00146893 0.0302091 0)
(-0.0154868 0.077867 0)
(-0.0381169 0.111009 0)
(-0.0655594 0.12929 0)
(-0.0939127 0.133843 0)
(-0.120592 0.126556 0)
(-0.143871 0.109586 0)
(-0.16261 0.0850903 0)
(-0.17608 0.0551041 0)
(-0.18381 0.021546 0)
(-0.185482 -0.0137046 0)
(-0.180872 -0.0486883 0)
(-0.16988 -0.0812417 0)
(-0.15262 -0.108909 0)
(-0.129588 -0.128936 0)
(-0.101897 -0.138402 0)
(-0.0715198 -0.134544 0)
(-0.041587 -0.11529 0)
(-0.0167753 -0.0800082 0)
(-0.00154259 -0.030341 0)
(-0.00176259 0.0386588 0)
(-0.0179106 0.0979049 0)
(-0.0433012 0.137676 0)
(-0.0733413 0.158417 0)
(-0.103586 0.162291 0)
(-0.131357 0.152165 0)
(-0.155093 0.13098 0)
(-0.173932 0.101437 0)
(-0.187434 0.0659025 0)
(-0.195355 0.026466 0)
(-0.197493 -0.0149213 0)
(-0.193604 -0.0562512 0)
(-0.183417 -0.0952527 0)
(-0.166733 -0.129213 0)
(-0.143645 -0.154882 0)
(-0.114865 -0.168536 0)
(-0.0821247 -0.166297 0)
(-0.0487069 -0.144796 0)
(-0.0201028 -0.102214 0)
(-0.00194175 -0.0395945 0)
(-0.00214796 0.048481 0)
(-0.0207536 0.120556 0)
(-0.0489141 0.166999 0)
(-0.0810717 0.189516 0)
(-0.112253 0.191792 0)
(-0.139857 0.178024 0)
(-0.162706 0.152127 0)
(-0.180417 0.117401 0)
(-0.192999 0.076506 0)
(-0.200553 0.0315943 0)
(-0.203067 -0.0154547 0)
(-0.200314 -0.0627525 0)
(-0.191829 -0.108095 0)
(-0.177019 -0.148664 0)
(-0.155403 -0.180793 0)
(-0.127028 -0.199894 0)
(-0.0930648 -0.200701 0)
(-0.0566738 -0.178007 0)
(-0.0241245 -0.128094 0)
(-0.00248113 -0.0507606 0)
(-0.00268743 0.0599847 0)
(-0.0242355 0.146021 0)
(-0.0550563 0.198656 0)
(-0.0884419 0.221666 0)
(-0.119001 0.22097 0)
(-0.144518 0.202549 0)
(-0.164517 0.17148 0)
(-0.17935 0.131678 0)
(-0.189658 0.0859991 0)
(-0.196008 0.036511 0)
(-0.198665 -0.0151667 0)
(-0.197462 -0.0674785 0)
(-0.19176 -0.118521 0)
(-0.180514 -0.165607 0)
(-0.162508 -0.204841 0)
(-0.136815 -0.230814 0)
(-0.103593 -0.236631 0)
(-0.0653921 -0.214595 0)
(-0.0290295 -0.158017 0)
(-0.0032315 -0.0643039 0)
(-0.00349452 0.0736708 0)
(-0.0286997 0.174524 0)
(-0.0617943 0.231989 0)
(-0.0948172 0.253315 0)
(-0.122296 0.2477 0)
(-0.142924 0.223425 0)
(-0.157369 0.186864 0)
(-0.167007 0.142464 0)
(-0.173275 0.0931059 0)
(-0.1773 0.0405657 0)
(-0.179686 -0.0140122 0)
(-0.180393 -0.0696436 0)
(-0.178658 -0.125004 0)
(-0.173006 -0.177859 0)
(-0.161392 -0.22442 0)
(-0.141626 -0.258689 0)
(-0.112276 -0.272053 0)
(-0.0745025 -0.253623 0)
(-0.0350467 -0.192224 0)
(-0.00431112 -0.0808601 0)
(-0.0047709 0.0903456 0)
(-0.034628 0.206226 0)
(-0.0689692 0.265692 0)
(-0.098826 0.281919 0)
(-0.11946 0.268816 0)
(-0.131314 0.237446 0)
(-0.136739 0.195428 0)
(-0.138386 0.147481 0)
(-0.138558 0.0962216 0)
(-0.138938 0.0428826 0)
(-0.140477 -0.0120834 0)
(-0.143309 -0.0684828 0)
(-0.146668 -0.125846 0)
(-0.148788 -0.182774 0)
(-0.146871 -0.236082 0)
(-0.137307 -0.279707 0)
(-0.116494 -0.303578 0)
(-0.0830701 -0.293084 0)
(-0.0423921 -0.230599 0)
(-0.00591567 -0.101293 0)
(-0.00680785 0.111216 0)
(-0.0424868 0.240924 0)
(-0.0755931 0.297201 0)
(-0.0974155 0.30337 0)
(-0.105662 0.279792 0)
(-0.10373 0.24046 0)
(-0.0961545 0.19377 0)
(-0.0869017 0.144173 0)
(-0.0789835 0.0935948 0)
(-0.074457 0.0424595 0)
(-0.074502 -0.00963191 0)
(-0.0794488 -0.0634028 0)
(-0.088694 -0.119427 0)
(-0.100489 -0.177501 0)
(-0.111653 -0.235664 0)
(-0.117361 -0.288676 0)
(-0.111499 -0.325905 0)
(-0.0888413 -0.329126 0)
(-0.050987 -0.27214 0)
(-0.00829217 -0.126681 0)
(-0.00980384 0.138143 0)
(-0.0519832 0.277354 0)
(-0.0782132 0.321498 0)
(-0.0838194 0.311141 0)
(-0.0720982 0.274497 0)
(-0.0507244 0.227597 0)
(-0.0264613 0.17841 0)
(-0.00412808 0.130215 0)
(0.0131055 0.0837473 0)
(0.0232596 0.0384177 0)
(0.0251956 -0.00703629 0)
(0.0184461 -0.0541906 0)
(0.00325781 -0.104642 0)
(-0.0191187 -0.159561 0)
(-0.0458661 -0.218803 0)
(-0.0718012 -0.279157 0)
(-0.088737 -0.331242 0)
(-0.0865654 -0.354858 0)
(-0.0595112 -0.314049 0)
(-0.0115064 -0.15846 0)
(-0.0137533 0.175125 0)
(-0.0598622 0.311857 0)
(-0.0669904 0.329073 0)
(-0.0435329 0.295423 0)
(-0.00303997 0.245548 0)
(0.0423049 0.194262 0)
(0.0847991 0.146915 0)
(0.120127 0.104515 0)
(0.146006 0.0662172 0)
(0.161238 0.0304426 0)
(0.165132 -0.00469522 0)
(0.15723 -0.0412813 0)
(0.137274 -0.0815824 0)
(0.105482 -0.127933 0)
(0.0632253 -0.182229 0)
(0.0143286 -0.244448 0)
(-0.0330051 -0.309202 0)
(-0.0645778 -0.358767 0)
(-0.0630502 -0.350264 0)
(-0.0153143 -0.19977 0)
(-0.0187317 0.227246 0)
(-0.0534019 0.332794 0)
(-0.0166665 0.303329 0)
(0.0527863 0.244351 0)
(0.127948 0.187265 0)
(0.196292 0.139224 0)
(0.253053 0.100438 0)
(0.296766 0.0690329 0)
(0.327332 0.0427379 0)
(0.345029 0.0194242 0)
(0.349983 -0.00287735 0)
(0.341926 -0.0261499 0)
(0.320111 -0.0526333 0)
(0.283418 -0.0850659 0)
(0.230793 -0.126771 0)
(0.162388 -0.181119 0)
(0.0819565 -0.24925 0)
(0.00214097 -0.323289 0)
(-0.0469601 -0.365413 0)
(-0.0188863 -0.252834 0)
(-0.00226918 0.258732 0)
(0.019556 0.298286 0)
(0.1362 0.221742 0)
(0.259448 0.153622 0)
(0.359656 0.105202 0)
(0.436284 0.0716711 0)
(0.49329 0.0483153 0)
(0.534036 0.0315378 0)
(0.56111 0.0187612 0)
(0.576286 0.00817399 0)
(0.580464 -0.00159978 0)
(0.573651 -0.0118165 0)
(0.554886 -0.0239253 0)
(0.522102 -0.0399505 0)
(0.47197 -0.0629903 0)
(0.399794 -0.0977469 0)
(0.299652 -0.150692 0)
(0.169698 -0.227791 0)
(0.0398509 -0.314422 0)
(0.00400143 -0.275089 0)
(0.268727 0.115949 0)
(0.378786 0.100418 0)
(0.540346 0.0528046 0)
(0.658961 0.0282102 0)
(0.73261 0.0163934 0)
(0.779408 0.00976197 0)
(0.810177 0.00579716 0)
(0.830263 0.00336975 0)
(0.84269 0.00178273 0)
(0.849196 0.000615646 0)
(0.850618 -0.000395209 0)
(0.847071 -0.0014622 0)
(0.837937 -0.00283211 0)
(0.821642 -0.00489802 0)
(0.795159 -0.00835577 0)
(0.752852 -0.0144139 0)
(0.683189 -0.0256784 0)
(0.565517 -0.0500543 0)
(0.397183 -0.0996017 0)
(0.275602 -0.118502 0)
)
;

boundaryField
{
    movingWall
    {
        type            fixedValue;
        value           uniform (1 0 0);
    }
    fixedWalls
    {
        type            noSlip;
    }
    frontAndBack
    {
        type            empty;
    }
}


// ************************************************************************* //
