/*--------------------------------*- C++ -*----------------------------------*\
| =========                 |                                                 |
| \\      /  F ield         | OpenFOAM: The Open Source CFD Toolbox           |
|  \\    /   O peration     | Version:  2512                                  |
|   \\  /    A nd           | Website:  www.openfoam.com                      |
|    \\/     M anipulation  |                                                 |
\*---------------------------------------------------------------------------*/
FoamFile
{
    version     2.0;
    format      ascii;
    arch        "LSB;label=32;scalar=64";
    class       volScalarField;
    location    "0.5";
    object      epsilonEq;
}
// * * * * * * * * * * * * * * * * * * * * * * * * * * * * * * * * * * * * * //

dimensions      [0 0 0 0 0 0 0];

internalField   nonuniform List<scalar> 
160
(
3.9517909e-06
4.2684399e-06
4.0577712e-06
3.7793843e-06
3.4929394e-06
3.2140207e-06
2.9446224e-06
2.6849554e-06
2.4349971e-06
2.1947223e-06
1.9641147e-06
1.7431655e-06
1.531877e-06
1.3302689e-06
1.1383935e-06
9.5636243e-07
7.844031e-07
6.2298814e-07
4.7317047e-07
3.3760839e-07
2.2431394e-07
1.5937768e-07
1.7968452e-07
2.5410816e-07
3.4115562e-07
4.2707263e-07
5.0769156e-07
5.8149432e-07
6.4784678e-07
7.0646593e-07
7.5722261e-07
8.0005295e-07
8.3490611e-07
8.6168903e-07
8.802467e-07
8.9136096e-07
9.0831819e-07
1.0193989e-06
1.8603227e-06
5.2014126e-06
1.6808783e-06
1.6606315e-06
1.5482411e-06
1.4418227e-06
1.3448424e-06
1.2532241e-06
1.1655335e-06
1.0814276e-06
1.0008654e-06
9.2387712e-07
8.5051469e-07
7.8084509e-07
7.1495158e-07
6.5293727e-07
5.9492916e-07
5.4108234e-07
4.9158315e-07
4.4664977e-07
4.0652683e-07
3.7146953e-07
3.417118e-07
3.174151e-07
2.9860186e-07
2.8509019e-07
2.7645719e-07
2.7205446e-07
2.7107642e-07
2.7265612e-07
2.7595233e-07
2.8020687e-07
2.847724e-07
2.8911995e-07
2.9282253e-07
2.9546558e-07
2.9628112e-07
2.9287605e-07
2.7905922e-07
2.7111873e-07
5.8177734e-07
1.6101463e-06
1.6807861e-06
1.6605241e-06
1.5481283e-06
1.4417079e-06
1.3447265e-06
1.2531077e-06
1.1654171e-06
1.0813116e-06
1.0007503e-06
9.2376341e-07
8.5040297e-07
7.807359e-07
7.148455e-07
6.5283485e-07
5.9483097e-07
5.4098893e-07
4.9149511e-07
4.4656768e-07
4.0645127e-07
3.7140103e-07
3.4165081e-07
3.1736191e-07
2.9855652e-07
2.8505243e-07
2.7642653e-07
2.7203028e-07
2.7105814e-07
2.7264293e-07
2.7594279e-07
2.8019989e-07
2.847694e-07
2.891261e-07
2.9284333e-07
2.9549893e-07
2.9631612e-07
2.9290153e-07
2.7907564e-07
2.7114779e-07
5.8181882e-07
1.610153e-06
3.9516928e-06
4.2683301e-06
4.0576554e-06
3.7792652e-06
3.4928186e-06
3.2138991e-06
2.9445005e-06
2.6848337e-06
2.434876e-06
2.1946023e-06
1.9639962e-06
1.743049e-06
1.5317628e-06
1.3301574e-06
1.138285e-06
9.5625699e-07
7.8430089e-07
6.2288914e-07
4.7307458e-07
3.3751577e-07
2.2422783e-07
1.5931838e-07
1.7967587e-07
2.5412601e-07
3.4118215e-07
4.271013e-07
5.0771986e-07
5.8152159e-07
6.4787349e-07
7.0649369e-07
7.5725332e-07
8.0008726e-07
8.3494361e-07
8.6172766e-07
8.8028417e-07
8.913955e-07
9.0834611e-07
1.0194153e-06
1.8603242e-06
5.2014224e-06
)
;

boundaryField
{
    left
    {
        type            calculated;
        value           nonuniform List<scalar> 4(4.6743509e-06 1.3591228e-06 1.3590381e-06 4.6742408e-06);
    }
    right
    {
        type            calculated;
        value           nonuniform List<scalar> 4(6.1962306e-06 2.1131703e-06 2.1131335e-06 6.1962427e-06);
    }
    top
    {
        type            calculated;
        value           nonuniform List<scalar> 
40
(
4.8950118e-06
5.6360193e-06
5.36686e-06
5.0106834e-06
4.6311066e-06
4.2593789e-06
3.8997815e-06
3.5530093e-06
3.2190834e-06
2.8979592e-06
2.5895869e-06
2.2939143e-06
2.0108856e-06
1.7404409e-06
1.482517e-06
1.2370475e-06
1.0039646e-06
7.832019e-07
5.7470341e-07
3.7845607e-07
1.9469414e-07
3.1353018e-08
1.4183e-07
2.8970353e-07
4.2660815e-07
5.5210472e-07
6.6619723e-07
7.6896047e-07
8.6049291e-07
9.4090143e-07
1.0102852e-06
1.0687208e-06
1.1162581e-06
1.1529493e-06
1.1792742e-06
1.1994685e-06
1.2486944e-06
1.4900671e-06
3.1027427e-06
6.2891672e-06
)
;
    }
    bottom
    {
        type            calculated;
        value           nonuniform List<scalar> 
40
(
4.8950987e-06
5.6361229e-06
5.3669707e-06
5.0107985e-06
4.6312237e-06
4.2594968e-06
3.8998994e-06
3.5531268e-06
3.2191999e-06
2.8980742e-06
2.5896999e-06
2.2940249e-06
2.0109932e-06
1.7405453e-06
1.4826176e-06
1.2371441e-06
1.0040568e-06
7.8328938e-07
5.7478589e-07
3.7853329e-07
1.9476563e-07
3.1397308e-08
1.4176987e-07
2.896481e-07
4.265578e-07
5.5205929e-07
6.6615652e-07
7.6892323e-07
8.6045642e-07
9.4086225e-07
1.010242e-06
1.0686773e-06
1.1162189e-06
1.152915e-06
1.1792394e-06
1.1994275e-06
1.2486523e-06
1.4900376e-06
3.1027303e-06
6.2891593e-06
)
;
    }
    frontAndBack
    {
        type            empty;
    }
}


// ************************************************************************* //
