/*--------------------------------*- C++ -*----------------------------------*\
| =========                 |                                                 |
| \\      /  F ield         | OpenFOAM: The Open Source CFD Toolbox           |
|  \\    /   O peration     | Version:  2512                                  |
|   \\  /    A nd           | Website:  www.openfoam.com                      |
|    \\/     M anipulation  |                                                 |
\*---------------------------------------------------------------------------*/
FoamFile
{
    version     2.0;
    format      ascii;
    arch        "LSB;label=32;scalar=64";
    class       volSymmTensorField;
    location    "0.5";
    object      epsilon;
}
// * * * * * * * * * * * * * * * * * * * * * * * * * * * * * * * * * * * * * //

dimensions      [0 0 0 0 0 0 0];

internalField   nonuniform List<symmTensor> 
160
(
(-5.0749584e-06 -1.111082e-07 -6.4623485e-22 1.4354327e-06 6.4623485e-23 0)
(-5.4461086e-06 -2.7967018e-07 -5.1698788e-22 1.5797742e-06 -1.0339758e-21 0)
(-5.1446144e-06 -2.7678781e-07 -1.5509636e-21 1.5468266e-06 2.5849394e-21 0)
(-4.789358e-06 -2.76596e-07 2.0679515e-21 1.4400895e-06 5.1698788e-21 0)
(-4.4246175e-06 -2.7004757e-07 -1.0339758e-21 1.3302469e-06 -8.2718061e-21 0)
(-4.0694602e-06 -2.6245548e-07 2.0679515e-21 1.2233847e-06 -4.1359031e-21 0)
(-3.7262563e-06 -2.5460578e-07 -4.1359031e-21 1.1203414e-06 -8.2718061e-21 0)
(-3.3953343e-06 -2.4671533e-07 0 1.0210441e-06 4.1359031e-21 0)
(-3.0766713e-06 -2.3882127e-07 6.2038546e-21 9.2543952e-07 -1.6543612e-20 0)
(-2.77022e-06 -2.3093126e-07 -2.0679515e-21 8.3350147e-07 -1.6543612e-20 0)
(-2.4759322e-06 -2.2304715e-07 -4.1359031e-21 7.4521296e-07 -1.6543612e-20 0)
(-2.1937575e-06 -2.1516992e-07 -4.1359031e-21 6.6055838e-07 -7.4446255e-20 0)
(-1.9236421e-06 -2.0730018e-07 -4.1359031e-21 5.7952142e-07 3.3087225e-20 0)
(-1.6655277e-06 -1.9943858e-07 -2.0679515e-21 5.0208463e-07 -4.9630837e-20 0)
(-1.4193523e-06 -1.9158564e-07 -1.8611564e-20 4.2822934e-07 -1.6543612e-20 0)
(-1.1850496e-06 -1.8374195e-07 8.2718061e-21 3.5793573e-07 1.6543612e-20 0)
(-9.6254985e-07 -1.7590798e-07 -1.0339758e-20 2.9118284e-07 9.9261674e-20 0)
(-7.5177947e-07 -1.6808428e-07 2.0679515e-21 2.279486e-07 1.6543612e-20 0)
(-5.5266152e-07 -1.6027126e-07 -4.1359031e-21 1.6820997e-07 1.6543612e-20 0)
(-3.6511589e-07 -1.5246939e-07 -8.2718061e-21 1.119429e-07 9.9261674e-20 0)
(-1.8905947e-07 -1.4467902e-07 0 5.912248e-08 3.3087225e-20 0)
(-2.4406451e-08 -1.3690056e-07 -2.0679515e-21 9.7229703e-09 6.6174449e-20 0)
(1.2893155e-07 -1.2913434e-07 -6.2038546e-21 -3.6282138e-08 -1.6543612e-19 0)
(2.7104519e-07 -1.2138078e-07 0 -7.8920062e-08 3.3087225e-20 0)
(4.0202732e-07 -1.1364029e-07 2.0679515e-21 -1.1821867e-07 -3.3087225e-20 0)
(5.2197279e-07 -1.0591346e-07 6.2038546e-21 -1.5420652e-07 0 0)
(6.3097873e-07 -9.8201343e-08 0 -1.8691284e-07 -6.6174449e-20 0)
(7.2914528e-07 -9.0505543e-08 4.1359031e-21 -2.1636781e-07 -6.6174449e-20 0)
(8.1657633e-07 -8.2828014e-08 6.2038546e-21 -2.426021e-07 -1.323489e-19 0)
(8.933768e-07 -7.5167544e-08 -4.1359031e-21 -2.6564557e-07 6.6174449e-20 0)
(9.5964365e-07 -6.7519283e-08 6.2038546e-21 -2.8552461e-07 -6.6174449e-20 0)
(1.0154542e-06 -5.9880606e-08 6.2038546e-21 -3.0225625e-07 -3.3087225e-20 0)
(1.0608523e-06 -5.2272086e-08 2.0679515e-21 -3.1583065e-07 1.9852335e-19 0)
(1.0958367e-06 -4.4792026e-08 6.2038546e-21 -3.2614139e-07 -2.646978e-19 0)
(1.1204917e-06 -3.7842639e-08 4.1359031e-21 -3.3275724e-07 1.323489e-19 0)
(1.1365516e-06 -3.3110116e-08 -2.0679515e-21 -3.3481827e-07 -6.6174449e-20 0)
(1.1627841e-06 -3.9450703e-08 1.0339758e-20 -3.3382664e-07 -6.6174449e-20 0)
(1.2941034e-06 -7.9729338e-08 -6.2038546e-21 -3.8398843e-07 1.323489e-19 0)
(2.2749623e-06 -3.4470133e-07 2.0679515e-20 -7.4633255e-07 0 0)
(4.5338155e-06 1.3963121e-07 -2.0679515e-21 -4.4708928e-06 1.323489e-19 0)
(-1.9609121e-06 -7.9342123e-07 -2.4233807e-22 2.7835583e-07 -1.9387046e-22 0)
(-1.8606413e-06 -6.8542284e-07 -9.0472879e-22 5.525534e-07 -5.1698788e-22 0)
(-1.7303635e-06 -6.3501631e-07 -2.3264455e-21 5.2694193e-07 0 0)
(-1.6016839e-06 -6.054243e-07 -2.5849394e-22 4.8514386e-07 3.1019273e-21 0)
(-1.4784092e-06 -5.8446103e-07 -7.7548182e-22 4.4624802e-07 2.0679515e-21 0)
(-1.3597262e-06 -5.6541369e-07 -3.1019273e-21 4.1012057e-07 -6.2038546e-21 0)
(-1.2452813e-06 -5.4677526e-07 -1.5509636e-21 3.7566801e-07 4.1359031e-21 0)
(-1.1349608e-06 -5.2823386e-07 5.1698788e-22 3.4254578e-07 -4.1359031e-21 0)
(-1.0287287e-06 -5.0974062e-07 -3.6189152e-21 3.1066761e-07 3.3087225e-20 0)
(-9.2656587e-07 -4.9129185e-07 -4.6528909e-21 2.8001296e-07 -2.4815418e-20 0)
(-8.2845631e-07 -4.7289078e-07 -2.5849394e-21 2.5057433e-07 2.4815418e-20 0)
(-7.343832e-07 -4.5454153e-07 -4.1359031e-21 2.2234623e-07 -6.6174449e-20 0)
(-6.4432856e-07 -4.3624829e-07 -3.1019273e-21 1.9532321e-07 -1.6543612e-20 0)
(-5.5827305e-07 -4.1801519e-07 -3.1019273e-21 1.6949944e-07 3.3087225e-20 0)
(-4.7619601e-07 -3.9984626e-07 -2.0679515e-21 1.4486874e-07 4.9630837e-20 0)
(-3.9807543e-07 -3.8174539e-07 -4.1359031e-21 1.2142452e-07 6.6174449e-20 0)
(-3.238881e-07 -3.6371629e-07 -4.1359031e-21 9.9159832e-08 4.9630837e-20 0)
(-2.5360954e-07 -3.4576249e-07 0 7.8067375e-08 -1.6543612e-20 0)
(-1.872142e-07 -3.278873e-07 -3.1019273e-21 5.8139503e-08 -8.2718061e-20 0)
(-1.2467542e-07 -3.1009383e-07 -1.0339758e-21 3.9368252e-08 9.9261674e-20 0)
(-6.5965603e-08 -2.9238495e-07 -5.1698788e-21 2.1745365e-08 3.3087225e-20 0)
(-1.1056194e-08 -2.7476333e-07 -6.2038546e-21 5.2623075e-09 3.3087225e-20 0)
(4.0082165e-08 -2.5723149e-07 -4.1359031e-21 -1.0089707e-08 0 0)
(8.7479606e-08 -2.3979181e-07 -9.3057819e-21 -2.43197e-08 -1.6543612e-19 0)
(1.3116695e-07 -2.2244664e-07 -7.2378304e-21 -3.7436911e-08 6.6174449e-20 0)
(1.7117574e-07 -2.0519857e-07 -6.2038546e-21 -4.9450884e-08 3.3087225e-20 0)
(2.0753833e-07 -1.880507e-07 -2.0679515e-21 -6.0371464e-08 -9.9261674e-20 0)
(2.4028807e-07 -1.7100684e-07 -7.2378304e-21 -7.0208984e-08 -6.6174449e-20 0)
(2.6945894e-07 -1.5406897e-07 0 -7.8973529e-08 -1.323489e-19 0)
(2.9508413e-07 -1.3723186e-07 -5.1698788e-21 -8.6673694e-08 -1.6543612e-19 0)
(3.1719344e-07 -1.2047976e-07 -3.1019273e-21 -9.3315168e-08 -6.6174449e-20 0)
(3.3581048e-07 -1.0379137e-07 -4.1359031e-21 -9.8897725e-08 9.9261674e-20 0)
(3.5094612e-07 -8.7146715e-08 -5.1698788e-21 -1.0340019e-07 6.6174449e-20 0)
(3.625696e-07 -7.048201e-08 -3.1019273e-21 -1.0668937e-07 1.323489e-19 0)
(3.7046499e-07 -5.3356053e-08 -5.1698788e-21 -1.0808779e-07 0 0)
(3.7367125e-07 -3.3273422e-08 -5.1698788e-21 -1.0463109e-07 1.9852335e-19 0)
(3.6857294e-07 2.4433699e-09 -1.0339758e-21 -8.6479453e-08 2.646978e-19 0)
(3.4628641e-07 1.0391276e-07 -5.1698788e-21 -3.4360478e-08 0 0)
(3.0107417e-07 4.6212874e-07 -2.5849394e-21 -7.9403774e-08 -1.9852335e-19 0)
(5.3268323e-07 9.5896709e-07 -3.1019273e-21 -1.42529e-06 1.323489e-19 0)
(1.9607685e-06 -7.9341158e-07 8.0779357e-23 -2.7833695e-07 1.2924697e-22 0)
(1.8604882e-06 -6.8541783e-07 6.4623485e-22 -5.5251028e-07 -1.2924697e-21 0)
(1.7302075e-06 -6.3500962e-07 -7.7548182e-22 -5.2689224e-07 5.1698788e-22 0)
(1.6015269e-06 -6.0541471e-07 -2.5849394e-22 -4.8509281e-07 2.0679515e-21 0)
(1.4782517e-06 -5.8444857e-07 1.0339758e-21 -4.4619685e-07 -2.0679515e-21 0)
(1.3595685e-06 -5.6539857e-07 1.0339758e-21 -4.1006948e-07 -4.1359031e-21 0)
(1.2451239e-06 -5.4675767e-07 5.1698788e-22 -3.7561706e-07 4.1359031e-21 0)
(1.1348042e-06 -5.282139e-07 0 -3.4249507e-07 0 0)
(1.0285735e-06 -5.0971839e-07 -2.0679515e-21 -3.1061729e-07 8.2718061e-21 0)
(9.2641275e-07 -4.912674e-07 -2.5849394e-21 -2.7996317e-07 1.6543612e-20 0)
(8.2830589e-07 -4.7286419e-07 1.0339758e-21 -2.5052526e-07 0 0)
(7.3423611e-07 -4.5451287e-07 -1.0339758e-21 -2.222981e-07 -4.9630837e-20 0)
(6.4418539e-07 -4.3621764e-07 -3.1019273e-21 -1.9527622e-07 3.3087225e-20 0)
(5.5813437e-07 -4.1798263e-07 1.0339758e-21 -1.6945381e-07 1.6543612e-20 0)
(4.7606233e-07 -3.9981189e-07 -4.1359031e-21 -1.4482467e-07 9.9261674e-20 0)
(3.9794725e-07 -3.8170928e-07 4.1359031e-21 -1.213822e-07 1.6543612e-20 0)
(3.2376583e-07 -3.6367856e-07 4.1359031e-21 -9.9119447e-08 -1.6543612e-20 0)
(2.534936e-07 -3.4572323e-07 2.0679515e-21 -7.8029072e-08 -3.3087225e-20 0)
(1.8710493e-07 -3.2784662e-07 1.0339758e-21 -5.8103413e-08 -6.6174449e-20 0)
(1.2457315e-07 -3.1005184e-07 -5.1698788e-21 -3.9334484e-08 1.9852335e-19 0)
(6.5870557e-08 -2.9234177e-07 1.0339758e-21 -2.1713999e-08 3.3087225e-20 0)
(1.0968561e-08 -2.7471907e-07 -2.0679515e-21 -5.2333895e-09 -6.6174449e-20 0)
(-4.016234e-08 -2.5718628e-07 -1.0339758e-21 1.0116173e-08 0 0)
(-8.755245e-08 -2.3974576e-07 0 2.4343791e-08 -3.3087225e-20 0)
(-1.3123288e-07 -2.2239987e-07 3.1019273e-21 3.745879e-08 6.6174449e-20 0)
(-1.7123548e-07 -2.0515115e-07 -1.0339758e-21 4.9470708e-08 3.3087225e-20 0)
(-2.0759282e-07 -1.8800286e-07 -1.0339758e-21 6.0388978e-08 -6.6174449e-20 0)
(-2.4033814e-07 -1.7095909e-07 -2.0679515e-21 7.0222718e-08 3.3087225e-20 0)
(-2.6950528e-07 -1.5402166e-07 0 7.8981114e-08 -9.9261674e-20 0)
(-2.9512785e-07 -1.3718492e-07 -1.0339758e-21 8.6674206e-08 3.3087225e-20 0)
(-3.172371e-07 -1.2043224e-07 0 9.3312631e-08 -2.646978e-19 0)
(-3.3585782e-07 -1.0374236e-07 0 9.8901545e-08 -1.6543612e-19 0)
(-3.5100003e-07 -8.7097276e-08 2.0679515e-21 1.0341784e-07 0 0)
(-3.6262784e-07 -7.0434567e-08 0 1.0671705e-07 -1.323489e-19 0)
(-3.7052057e-07 -5.3311986e-08 0 1.0811093e-07 1.323489e-19 0)
(-3.7371658e-07 -3.3231941e-08 3.1019273e-21 1.0463662e-07 -3.3087225e-19 0)
(-3.6860435e-07 2.4843738e-09 0 8.6468641e-08 -2.646978e-19 0)
(-3.4630836e-07 1.0395348e-07 0 3.4346288e-08 -1.9852335e-19 0)
(-3.0108985e-07 4.6216589e-07 2.5849394e-21 7.9392662e-08 -6.6174449e-20 0)
(-5.3268452e-07 9.5899172e-07 -1.0339758e-21 1.4252615e-06 1.323489e-19 0)
(5.0748315e-06 -1.1110315e-07 1.1632227e-21 -1.4353986e-06 -5.1698788e-22 0)
(5.4459681e-06 -2.796661e-07 1.5509636e-21 -1.5797336e-06 -5.1698788e-22 0)
(5.1444679e-06 -2.767817e-07 4.6528909e-21 -1.5467817e-06 -1.0339758e-21 0)
(4.7892079e-06 -2.7658657e-07 -1.0339758e-21 -1.4400432e-06 -3.1019273e-21 0)
(4.4244657e-06 -2.7003514e-07 0 -1.3302e-06 2.0679515e-21 0)
(4.0693077e-06 -2.6244036e-07 4.1359031e-21 -1.2233375e-06 6.2038546e-21 0)
(3.7261038e-06 -2.5458819e-07 4.1359031e-21 -1.1202942e-06 0 0)
(3.3951825e-06 -2.4669537e-07 1.2407709e-20 -1.0209971e-06 -1.2407709e-20 0)
(3.0765208e-06 -2.3879903e-07 1.0339758e-20 -9.2539296e-07 -1.6543612e-20 0)
(2.7700714e-06 -2.309068e-07 6.2038546e-21 -8.3345546e-07 1.6543612e-20 0)
(2.4757862e-06 -2.2302056e-07 -4.1359031e-21 -7.4516769e-07 -3.3087225e-20 0)
(2.1936147e-06 -2.1514125e-07 6.2038546e-21 -6.6051404e-07 -5.7902643e-20 0)
(1.923503e-06 -2.0726954e-07 0 -5.7947819e-07 1.6543612e-20 0)
(1.6653929e-06 -1.9940602e-07 1.2407709e-20 -5.0204268e-07 0 0)
(1.4192223e-06 -1.9155127e-07 2.0679515e-21 -4.2818886e-07 0 0)
(1.1849249e-06 -1.8370584e-07 4.1359031e-21 -3.5789687e-07 1.323489e-19 0)
(9.624309e-07 -1.7587025e-07 2.4815418e-20 -2.9114573e-07 -6.6174449e-20 0)
(7.5166661e-07 -1.6804501e-07 0 -2.2791339e-07 -4.9630837e-20 0)
(5.525551e-07 -1.6023058e-07 2.0679515e-21 -1.6817676e-07 4.9630837e-20 0)
(3.6501619e-07 -1.5242739e-07 4.1359031e-21 -1.1191179e-07 -6.6174449e-20 0)
(1.8896675e-07 -1.4463584e-07 1.2407709e-20 -5.9093548e-08 -3.3087225e-20 0)
(2.4320842e-08 -1.368563e-07 1.0339758e-20 -9.6962528e-09 -3.3087225e-20 0)
(-1.2901e-07 -1.2908914e-07 8.2718061e-21 3.6306634e-08 -3.3087225e-20 0)
(-2.7111662e-07 -1.2133473e-07 1.6543612e-20 7.8942384e-08 -1.9852335e-19 0)
(-4.0209205e-07 -1.135935e-07 1.4475661e-20 1.1823891e-07 -6.6174449e-20 0)
(-5.2203128e-07 -1.0586597e-07 1.4475661e-20 1.5422478e-07 -9.9261674e-20 0)
(-6.3103161e-07 -9.815337e-08 6.2038546e-21 1.8692908e-07 -1.9852335e-19 0)
(-7.291938e-07 -9.0457802e-08 1.4475661e-20 2.1638159e-07 0 0)
(-8.1662276e-07 -8.2780981e-08 4.1359031e-21 2.4261297e-07 -3.3087225e-20 0)
(-8.9342407e-07 -7.512118e-08 1.0339758e-20 2.6565409e-07 -6.6174449e-20 0)
(-9.5969379e-07 -6.7472008e-08 1.0339758e-20 2.8553328e-07 -3.3087225e-20 0)
(-1.0155062e-06 -5.9830878e-08 4.1359031e-21 3.0226878e-07 -1.6543612e-19 0)
(-1.0609041e-06 -5.2221429e-08 4.1359031e-21 3.1584868e-07 2.646978e-19 0)
(-1.095887e-06 -4.4744088e-08 6.2038546e-21 3.2616201e-07 -1.323489e-19 0)
(-1.1205413e-06 -3.7799438e-08 6.2038546e-21 3.3277442e-07 6.6174449e-20 0)
(-1.1366013e-06 -3.3070212e-08 8.2718061e-21 3.3482759e-07 0 0)
(-1.1628288e-06 -3.9409981e-08 6.2038546e-21 3.3382927e-07 0 0)
(-1.294135e-06 -7.9687194e-08 2.0679515e-21 3.8398908e-07 -2.646978e-19 0)
(-2.2749791e-06 -3.4466284e-07 8.2718061e-21 7.463334e-07 -1.323489e-19 0)
(-4.533823e-06 1.3965324e-07 1.4475661e-20 4.4709009e-06 -1.323489e-19 0)
)
;

boundaryField
{
    left
    {
        type            calculated;
        value           nonuniform List<symmTensor> 4((-6.2303295e-06 -3.9651814e-07 0 1.3094332e-06 0 0) (-1.7564688e-06 -5.9750893e-07 0 0 0 0) (1.756335e-06 -5.9749547e-07 0 0 0 0) (6.230185e-06 -3.9649661e-07 0 -1.3094023e-06 0 0));
    }
    right
    {
        type            calculated;
        value           nonuniform List<symmTensor> 4((2.3640131e-06 1.3334727e-08 0 -7.8840242e-06 0 0) (8.0618486e-07 1.9948033e-08 0 -2.6886232e-06 0 0) (-8.0617078e-07 1.9947883e-08 0 2.6885763e-06 0 0) (-2.3640177e-06 1.3334562e-08 0 7.8840396e-06 0 0));
    }
    top
    {
        type            calculated;
        value           nonuniform List<symmTensor> 
40
(
(6.2280541e-06 -9.5296118e-10 0 -1.8680478e-06 0 0)
(7.1708813e-06 -1.8263138e-09 0 -2.1507988e-06 0 0)
(6.8284409e-06 -2.914614e-09 0 -2.0480538e-06 0 0)
(6.3752818e-06 -4.0572829e-09 0 -1.9121061e-06 0 0)
(5.8923478e-06 -5.1979028e-09 0 -1.7672305e-06 0 0)
(5.4193982e-06 -6.3258898e-09 0 -1.6253519e-06 0 0)
(4.9618799e-06 -7.43716e-09 0 -1.4881041e-06 0 0)
(4.520677e-06 -8.5287225e-09 0 -1.355752e-06 0 0)
(4.0958159e-06 -9.5977148e-09 0 -1.2283037e-06 0 0)
(3.6872396e-06 -1.0641327e-08 0 -1.105742e-06 0 0)
(3.2948843e-06 -1.1656813e-08 0 -9.8804767e-07 0 0)
(2.9186826e-06 -1.26415e-08 0 -8.7520058e-07 0 0)
(2.5585627e-06 -1.3592798e-08 0 -7.6717906e-07 0 0)
(2.2144469e-06 -1.4508207e-08 0 -6.639598e-07 0 0)
(1.8862522e-06 -1.5385323e-08 0 -5.6551787e-07 0 0)
(1.5738904e-06 -1.6221844e-08 0 -4.7182675e-07 0 0)
(1.2772682e-06 -1.7015576e-08 0 -3.8285837e-07 0 0)
(9.9628729e-07 -1.7764443e-08 0 -2.9858325e-07 0 0)
(7.3084501e-07 -1.8466484e-08 0 -2.1897049e-07 0 0)
(4.8083432e-07 -1.9119867e-08 0 -1.4398796e-07 0 0)
(2.4614428e-07 -1.9722886e-08 0 -7.3602307e-08 0 0)
(2.6660241e-08 -2.0273972e-08 0 -7.7790788e-09 0 0)
(-1.7773585e-07 -2.0771691e-08 0 5.3517195e-08 0 0)
(-3.6716514e-07 -2.1214751e-08 0 1.1032292e-07 0 0)
(-5.4175162e-07 -2.1602004e-08 0 1.6267535e-07 0 0)
(-7.0162177e-07 -2.1932447e-08 0 2.106125e-07 0 0)
(-8.4690511e-07 -2.2205224e-08 0 2.5417328e-07 0 0)
(-9.7773657e-07 -2.241963e-08 0 2.9339824e-07 0 0)
(-1.0942581e-06 -2.2575128e-08 0 3.2833003e-07 0 0)
(-1.1966138e-06 -2.2671373e-08 0 3.5901197e-07 0 0)
(-1.2849344e-06 -2.2708215e-08 0 3.8548331e-07 0 0)
(-1.3593198e-06 -2.2685639e-08 0 4.0777408e-07 0 0)
(-1.4198353e-06 -2.2603711e-08 0 4.2590394e-07 0 0)
(-1.4665481e-06 -2.2462633e-08 0 4.3989312e-07 0 0)
(-1.5000697e-06 -2.2262948e-08 0 4.4992502e-07 0 0)
(-1.5257911e-06 -2.2004404e-08 0 4.5761634e-07 0 0)
(-1.5884623e-06 -2.1674081e-08 0 4.7638529e-07 0 0)
(-1.8956625e-06 -2.1144144e-08 0 5.6847393e-07 0 0)
(-3.9477852e-06 -1.9821647e-08 0 1.1837715e-06 0 0)
(-8.0022758e-06 -1.3204727e-08 0 2.3994729e-06 0 0)
)
;
    }
    bottom
    {
        type            calculated;
        value           nonuniform List<symmTensor> 
40
(
(-6.2281646e-06 -9.5285723e-10 0 1.868081e-06 0 0)
(-7.171013e-06 -1.8262735e-09 0 2.1508383e-06 0 0)
(-6.8285817e-06 -2.9146034e-09 0 2.0480961e-06 0 0)
(-6.3754282e-06 -4.0572804e-09 0 1.9121502e-06 0 0)
(-5.8924967e-06 -5.1979022e-09 0 1.7672753e-06 0 0)
(-5.4195481e-06 -6.3258899e-09 0 1.625397e-06 0 0)
(-4.9620299e-06 -7.4371608e-09 0 1.4881491e-06 0 0)
(-4.5208264e-06 -8.5287239e-09 0 1.3557969e-06 0 0)
(-4.0959641e-06 -9.597717e-09 0 1.2283482e-06 0 0)
(-3.6873859e-06 -1.064133e-08 0 1.1057859e-06 0 0)
(-3.295028e-06 -1.1656817e-08 0 9.8809087e-07 0 0)
(-2.9188233e-06 -1.2641505e-08 0 8.7524284e-07 0 0)
(-2.5586996e-06 -1.3592804e-08 0 7.6722021e-07 0 0)
(-2.2145796e-06 -1.4508214e-08 0 6.6399969e-07 0 0)
(-1.8863802e-06 -1.5385331e-08 0 5.6555634e-07 0 0)
(-1.5740133e-06 -1.6221852e-08 0 4.7186367e-07 0 0)
(-1.2773855e-06 -1.7015585e-08 0 3.8289361e-07 0 0)
(-9.9639859e-07 -1.7764452e-08 0 2.9861669e-07 0 0)
(-7.3094998e-07 -1.8466494e-08 0 2.1900204e-07 0 0)
(-4.8093271e-07 -1.9119877e-08 0 1.4401753e-07 0 0)
(-2.4623583e-07 -1.9722897e-08 0 7.3629817e-08 0 0)
(-2.6744836e-08 -2.0273983e-08 0 7.8044986e-09 0 0)
(1.7765824e-07 -2.0771702e-08 0 -5.3493875e-08 0 0)
(3.6709437e-07 -2.1214761e-08 0 -1.1030166e-07 0 0)
(5.4168746e-07 -2.1602013e-08 0 -1.6265607e-07 0 0)
(7.0156393e-07 -2.1932456e-08 0 -2.1059512e-07 0 0)
(8.4685329e-07 -2.2205235e-08 0 -2.5415771e-07 0 0)
(9.7768918e-07 -2.2419648e-08 0 -2.93384e-07 0 0)
(1.0942117e-06 -2.2575152e-08 0 -3.2831608e-07 0 0)
(1.196564e-06 -2.2671393e-08 0 -3.5899699e-07 0 0)
(1.2848794e-06 -2.2708209e-08 0 -3.8546678e-07 0 0)
(1.3592644e-06 -2.2685598e-08 0 -4.0775746e-07 0 0)
(1.4197854e-06 -2.2603662e-08 0 -4.2588895e-07 0 0)
(1.4665044e-06 -2.2462622e-08 0 -4.3987998e-07 0 0)
(1.5000253e-06 -2.2262996e-08 0 -4.499117e-07 0 0)
(1.5257389e-06 -2.2004475e-08 0 -4.5760065e-07 0 0)
(1.5884088e-06 -2.1674117e-08 0 -4.7636918e-07 0 0)
(1.895625e-06 -2.1144133e-08 0 -5.6846267e-07 0 0)
(3.9477695e-06 -1.9821643e-08 0 -1.1837668e-06 0 0)
(8.0022656e-06 -1.3204779e-08 0 -2.3994699e-06 0 0)
)
;
    }
    frontAndBack
    {
        type            empty;
    }
}


// ************************************************************************* //
