/*--------------------------------*- C++ -*----------------------------------*\
| =========                 |                                                 |
| \\      /  F ield         | OpenFOAM: The Open Source CFD Toolbox           |
|  \\    /   O peration     | Version:  2512                                  |
|   \\  /    A nd           | Website:  www.openfoam.com                      |
|    \\/     M anipulation  |                                                 |
\*---------------------------------------------------------------------------*/
FoamFile
{
    version     2.0;
    format      ascii;
    arch        "LSB;label=32;scalar=64";
    class       pointVectorField;
    location    "0.5";
    object      pointD;
}
// * * * * * * * * * * * * * * * * * * * * * * * * * * * * * * * * * * * * * //

dimensions      [0 1 0 0 0 0 0];

internalField   nonuniform List<vector> 
410
(
(-6.4415383e-08 -3.2735829e-08 0)
(-2.201195e-07 -1.3468676e-07 0)
(-3.9939482e-07 -3.1432713e-07 0)
(-5.7010937e-07 -5.7730437e-07 0)
(-7.2949507e-07 -9.2191902e-07 0)
(-8.7680749e-07 -1.3425813e-06 0)
(-1.0122962e-06 -1.8333613e-06 0)
(-1.1363469e-06 -2.3884427e-06 0)
(-1.2493676e-06 -3.0022076e-06 0)
(-1.3517667e-06 -3.6692433e-06 0)
(-1.4439513e-06 -4.3843417e-06 0)
(-1.526327e-06 -5.142498e-06 0)
(-1.5992976e-06 -5.9389097e-06 0)
(-1.6632651e-06 -6.7689762e-06 0)
(-1.7186296e-06 -7.6282973e-06 0)
(-1.7657891e-06 -8.5126723e-06 0)
(-1.8051394e-06 -9.4180993e-06 0)
(-1.8370741e-06 -1.0340774e-05 0)
(-1.861984e-06 -1.1277087e-05 0)
(-1.8802578e-06 -1.2223626e-05 0)
(-1.8922811e-06 -1.3177171e-05 0)
(-1.898437e-06 -1.4134694e-05 0)
(-1.8991056e-06 -1.5093359e-05 0)
(-1.8946642e-06 -1.6050518e-05 0)
(-1.8854868e-06 -1.7003711e-05 0)
(-1.8719446e-06 -1.7950667e-05 0)
(-1.8544055e-06 -1.8889296e-05 0)
(-1.8332342e-06 -1.9817694e-05 0)
(-1.808792e-06 -2.0734136e-05 0)
(-1.7814367e-06 -2.1637081e-05 0)
(-1.7515226e-06 -2.2525162e-05 0)
(-1.7194006e-06 -2.3397189e-05 0)
(-1.685419e-06 -2.4252147e-05 0)
(-1.6499244e-06 -2.5089196e-05 0)
(-1.6132617e-06 -2.5907673e-05 0)
(-1.5757611e-06 -2.6707098e-05 0)
(-1.5376176e-06 -2.7487131e-05 0)
(-1.4979074e-06 -2.8247125e-05 0)
(-1.4505168e-06 -2.8982161e-05 0)
(-1.3518226e-06 -2.9667076e-05 0)
(-1.1517659e-06 -3.0121699e-05 0)
(0 0 0)
(-9.8043805e-08 -9.565096e-08 0)
(-1.9107391e-07 -2.7437422e-07 0)
(-2.7759009e-07 -5.3991595e-07 0)
(-3.5767228e-07 -8.8730297e-07 0)
(-4.3159074e-07 -1.310685e-06 0)
(-4.9957505e-07 -1.8040884e-06 0)
(-5.6183711e-07 -2.3616986e-06 0)
(-6.1858317e-07 -2.9778995e-06 0)
(-6.7001763e-07 -3.6472794e-06 0)
(-7.1634398e-07 -4.3646305e-06 0)
(-7.5776489e-07 -5.1249485e-06 0)
(-7.9448219e-07 -5.9234313e-06 0)
(-8.266968e-07 -6.7554786e-06 0)
(-8.546087e-07 -7.6166907e-06 0)
(-8.784168e-07 -8.5028674e-06 0)
(-8.9831895e-07 -9.4100074e-06 0)
(-9.1451181e-07 -1.0334307e-05 0)
(-9.2719082e-07 -1.1272157e-05 0)
(-9.3655014e-07 -1.2220146e-05 0)
(-9.4278262e-07 -1.3175054e-05 0)
(-9.460797e-07 -1.4133855e-05 0)
(-9.466314e-07 -1.5093712e-05 0)
(-9.4462628e-07 -1.6051979e-05 0)
(-9.4025138e-07 -1.7006196e-05 0)
(-9.336922e-07 -1.7954093e-05 0)
(-9.2513266e-07 -1.889358e-05 0)
(-9.1475505e-07 -1.9822755e-05 0)
(-9.0274002e-07 -2.0739894e-05 0)
(-8.8926649e-07 -2.1643454e-05 0)
(-8.7451175e-07 -2.2532071e-05 0)
(-8.5865155e-07 -2.3404556e-05 0)
(-8.4186045e-07 -2.4259893e-05 0)
(-8.2431247e-07 -2.5097242e-05 0)
(-8.0618324e-07 -2.5915934e-05 0)
(-7.8765929e-07 -2.6715474e-05 0)
(-7.6897518e-07 -2.7495496e-05 0)
(-7.505462e-07 -2.8255451e-05 0)
(-7.3323165e-07 -2.8993034e-05 0)
(-7.1817777e-07 -2.969352e-05 0)
(-6.9154364e-07 -3.03188e-05 0)
(0 0 0)
(-1.8006891e-12 -8.1733168e-08 0)
(-3.762019e-12 -2.6066434e-07 0)
(-5.7577611e-12 -5.2727873e-07 0)
(-7.7595531e-12 -8.7568299e-07 0)
(-9.7630215e-12 -1.2999926e-06 0)
(-1.1766016e-11 -1.7942748e-06 0)
(-1.3764312e-11 -2.3527288e-06 0)
(-1.5751402e-11 -2.969742e-06 0)
(-1.7719934e-11 -3.6399035e-06 0)
(-1.9661761e-11 -4.3580058e-06 0)
(-2.1569033e-11 -5.1190445e-06 0)
(-2.3433675e-11 -5.9182179e-06 0)
(-2.5248379e-11 -6.7509258e-06 0)
(-2.7005814e-11 -7.6127685e-06 0)
(-2.8699631e-11 -8.4995461e-06 0)
(-3.0323488e-11 -9.4072574e-06 0)
(-3.18721e-11 -1.0332098e-05 0)
(-3.3340158e-11 -1.1270462e-05 0)
(-3.4723449e-11 -1.2218934e-05 0)
(-3.6017775e-11 -1.3174297e-05 0)
(-3.7220215e-11 -1.4133524e-05 0)
(-3.8328254e-11 -1.5093779e-05 0)
(-3.9341394e-11 -1.6052416e-05 0)
(-4.0261172e-11 -1.7006975e-05 0)
(-4.1093182e-11 -1.7955186e-05 0)
(-4.1847113e-11 -1.889496e-05 0)
(-4.2535386e-11 -1.9824394e-05 0)
(-4.3166497e-11 -2.0741765e-05 0)
(-4.3744642e-11 -2.1645531e-05 0)
(-4.4279183e-11 -2.2534327e-05 0)
(-4.4805102e-11 -2.3406965e-05 0)
(-4.5382646e-11 -2.4262429e-05 0)
(-4.6059195e-11 -2.5099876e-05 0)
(-4.6804602e-11 -2.5918634e-05 0)
(-4.7509614e-11 -2.6718179e-05 0)
(-4.8052678e-11 -2.7498023e-05 0)
(-4.8389842e-11 -2.8257248e-05 0)
(-4.8617379e-11 -2.8992955e-05 0)
(-4.8785301e-11 -2.9697569e-05 0)
(-4.8757845e-11 -3.0386016e-05 0)
(0 0 0)
(9.8040225e-08 -9.5650015e-08 0)
(1.910666e-07 -2.7437301e-07 0)
(2.7757897e-07 -5.3991467e-07 0)
(3.5765732e-07 -8.8730169e-07 0)
(4.3157191e-07 -1.3106837e-06 0)
(4.9955234e-07 -1.8040871e-06 0)
(5.6181053e-07 -2.3616973e-06 0)
(6.1855273e-07 -2.9778982e-06 0)
(6.6998337e-07 -3.6472781e-06 0)
(7.1630595e-07 -4.3646293e-06 0)
(7.5772315e-07 -5.1249473e-06 0)
(7.9443682e-07 -5.9234301e-06 0)
(8.266479e-07 -6.7554774e-06 0)
(8.5455638e-07 -7.6166895e-06 0)
(8.7836119e-07 -8.5028663e-06 0)
(8.9826017e-07 -9.4100064e-06 0)
(9.1445001e-07 -1.0334306e-05 0)
(9.2712616e-07 -1.1272156e-05 0)
(9.3648279e-07 -1.2220145e-05 0)
(9.4271274e-07 -1.3175053e-05 0)
(9.4600747e-07 -1.4133854e-05 0)
(9.4655701e-07 -1.5093711e-05 0)
(9.4454991e-07 -1.6051978e-05 0)
(9.401732e-07 -1.7006196e-05 0)
(9.3361239e-07 -1.7954092e-05 0)
(9.2505137e-07 -1.889358e-05 0)
(9.1467242e-07 -1.9822754e-05 0)
(9.0265614e-07 -2.0739893e-05 0)
(8.8918146e-07 -2.1643454e-05 0)
(8.744256e-07 -2.2532071e-05 0)
(8.5856427e-07 -2.3404556e-05 0)
(8.4177196e-07 -2.4259893e-05 0)
(8.2422263e-07 -2.5097241e-05 0)
(8.0609199e-07 -2.5915934e-05 0)
(7.8756666e-07 -2.6715474e-05 0)
(7.6888138e-07 -2.7495496e-05 0)
(7.504515e-07 -2.8255452e-05 0)
(7.3313631e-07 -2.8993034e-05 0)
(7.1808198e-07 -2.969352e-05 0)
(6.9144773e-07 -3.0318801e-05 0)
(6.4414202e-08 -3.2735057e-08 0)
(2.2011555e-07 -1.3468489e-07 0)
(3.9938759e-07 -3.1432482e-07 0)
(5.7009861e-07 -5.7730195e-07 0)
(7.2948065e-07 -9.2191657e-07 0)
(8.7678935e-07 -1.3425788e-06 0)
(1.0122743e-06 -1.8333589e-06 0)
(1.1363213e-06 -2.3884402e-06 0)
(1.2493382e-06 -3.0022051e-06 0)
(1.3517336e-06 -3.6692409e-06 0)
(1.4439146e-06 -4.3843393e-06 0)
(1.5262867e-06 -5.1424956e-06 0)
(1.5992538e-06 -5.9389075e-06 0)
(1.6632179e-06 -6.768974e-06 0)
(1.718579e-06 -7.6282951e-06 0)
(1.7657353e-06 -8.5126702e-06 0)
(1.8050826e-06 -9.4180973e-06 0)
(1.8370143e-06 -1.0340772e-05 0)
(1.8619215e-06 -1.1277085e-05 0)
(1.8801926e-06 -1.2223625e-05 0)
(1.8922135e-06 -1.317717e-05 0)
(1.8983671e-06 -1.4134693e-05 0)
(1.8990336e-06 -1.5093357e-05 0)
(1.8945902e-06 -1.6050516e-05 0)
(1.885411e-06 -1.700371e-05 0)
(1.8718673e-06 -1.7950666e-05 0)
(1.8543267e-06 -1.8889295e-05 0)
(1.8331541e-06 -1.9817693e-05 0)
(1.8087107e-06 -2.0734136e-05 0)
(1.7813542e-06 -2.1637081e-05 0)
(1.7514389e-06 -2.2525162e-05 0)
(1.7193155e-06 -2.3397189e-05 0)
(1.6853325e-06 -2.4252146e-05 0)
(1.6498366e-06 -2.5089195e-05 0)
(1.6131729e-06 -2.5907672e-05 0)
(1.5756712e-06 -2.6707097e-05 0)
(1.5375264e-06 -2.7487131e-05 0)
(1.4978149e-06 -2.8247125e-05 0)
(1.4504233e-06 -2.8982162e-05 0)
(1.3517287e-06 -2.9667076e-05 0)
(1.1516718e-06 -3.01217e-05 0)
(-6.4415383e-08 -3.2735829e-08 0)
(-2.201195e-07 -1.3468676e-07 0)
(-3.9939482e-07 -3.1432713e-07 0)
(-5.7010937e-07 -5.7730437e-07 0)
(-7.2949507e-07 -9.2191902e-07 0)
(-8.7680749e-07 -1.3425813e-06 0)
(-1.0122962e-06 -1.8333613e-06 0)
(-1.1363469e-06 -2.3884427e-06 0)
(-1.2493676e-06 -3.0022076e-06 0)
(-1.3517667e-06 -3.6692433e-06 0)
(-1.4439513e-06 -4.3843417e-06 0)
(-1.526327e-06 -5.142498e-06 0)
(-1.5992976e-06 -5.9389097e-06 0)
(-1.6632651e-06 -6.7689762e-06 0)
(-1.7186296e-06 -7.6282973e-06 0)
(-1.7657891e-06 -8.5126723e-06 0)
(-1.8051394e-06 -9.4180993e-06 0)
(-1.8370741e-06 -1.0340774e-05 0)
(-1.861984e-06 -1.1277087e-05 0)
(-1.8802578e-06 -1.2223626e-05 0)
(-1.8922811e-06 -1.3177171e-05 0)
(-1.898437e-06 -1.4134694e-05 0)
(-1.8991056e-06 -1.5093359e-05 0)
(-1.8946642e-06 -1.6050518e-05 0)
(-1.8854868e-06 -1.7003711e-05 0)
(-1.8719446e-06 -1.7950667e-05 0)
(-1.8544055e-06 -1.8889296e-05 0)
(-1.8332342e-06 -1.9817694e-05 0)
(-1.808792e-06 -2.0734136e-05 0)
(-1.7814367e-06 -2.1637081e-05 0)
(-1.7515226e-06 -2.2525162e-05 0)
(-1.7194006e-06 -2.3397189e-05 0)
(-1.685419e-06 -2.4252147e-05 0)
(-1.6499244e-06 -2.5089196e-05 0)
(-1.6132617e-06 -2.5907673e-05 0)
(-1.5757611e-06 -2.6707098e-05 0)
(-1.5376176e-06 -2.7487131e-05 0)
(-1.4979074e-06 -2.8247125e-05 0)
(-1.4505168e-06 -2.8982161e-05 0)
(-1.3518226e-06 -2.9667076e-05 0)
(-1.1517659e-06 -3.0121699e-05 0)
(0 0 0)
(-9.8043805e-08 -9.565096e-08 0)
(-1.9107391e-07 -2.7437422e-07 0)
(-2.7759009e-07 -5.3991595e-07 0)
(-3.5767228e-07 -8.8730297e-07 0)
(-4.3159074e-07 -1.310685e-06 0)
(-4.9957505e-07 -1.8040884e-06 0)
(-5.6183711e-07 -2.3616986e-06 0)
(-6.1858317e-07 -2.9778995e-06 0)
(-6.7001763e-07 -3.6472794e-06 0)
(-7.1634398e-07 -4.3646305e-06 0)
(-7.5776489e-07 -5.1249485e-06 0)
(-7.9448219e-07 -5.9234313e-06 0)
(-8.266968e-07 -6.7554786e-06 0)
(-8.546087e-07 -7.6166907e-06 0)
(-8.784168e-07 -8.5028674e-06 0)
(-8.9831895e-07 -9.4100074e-06 0)
(-9.1451181e-07 -1.0334307e-05 0)
(-9.2719082e-07 -1.1272157e-05 0)
(-9.3655014e-07 -1.2220146e-05 0)
(-9.4278262e-07 -1.3175054e-05 0)
(-9.460797e-07 -1.4133855e-05 0)
(-9.466314e-07 -1.5093712e-05 0)
(-9.4462628e-07 -1.6051979e-05 0)
(-9.4025138e-07 -1.7006196e-05 0)
(-9.336922e-07 -1.7954093e-05 0)
(-9.2513266e-07 -1.889358e-05 0)
(-9.1475505e-07 -1.9822755e-05 0)
(-9.0274002e-07 -2.0739894e-05 0)
(-8.8926649e-07 -2.1643454e-05 0)
(-8.7451175e-07 -2.2532071e-05 0)
(-8.5865155e-07 -2.3404556e-05 0)
(-8.4186045e-07 -2.4259893e-05 0)
(-8.2431247e-07 -2.5097242e-05 0)
(-8.0618324e-07 -2.5915934e-05 0)
(-7.8765929e-07 -2.6715474e-05 0)
(-7.6897518e-07 -2.7495496e-05 0)
(-7.505462e-07 -2.8255451e-05 0)
(-7.3323165e-07 -2.8993034e-05 0)
(-7.1817777e-07 -2.969352e-05 0)
(-6.9154364e-07 -3.03188e-05 0)
(0 0 0)
(-1.8006891e-12 -8.1733168e-08 0)
(-3.762019e-12 -2.6066434e-07 0)
(-5.7577611e-12 -5.2727873e-07 0)
(-7.7595531e-12 -8.7568299e-07 0)
(-9.7630215e-12 -1.2999926e-06 0)
(-1.1766016e-11 -1.7942748e-06 0)
(-1.3764312e-11 -2.3527288e-06 0)
(-1.5751402e-11 -2.969742e-06 0)
(-1.7719934e-11 -3.6399035e-06 0)
(-1.9661761e-11 -4.3580058e-06 0)
(-2.1569033e-11 -5.1190445e-06 0)
(-2.3433675e-11 -5.9182179e-06 0)
(-2.5248379e-11 -6.7509258e-06 0)
(-2.7005814e-11 -7.6127685e-06 0)
(-2.8699631e-11 -8.4995461e-06 0)
(-3.0323488e-11 -9.4072574e-06 0)
(-3.18721e-11 -1.0332098e-05 0)
(-3.3340158e-11 -1.1270462e-05 0)
(-3.4723449e-11 -1.2218934e-05 0)
(-3.6017775e-11 -1.3174297e-05 0)
(-3.7220215e-11 -1.4133524e-05 0)
(-3.8328254e-11 -1.5093779e-05 0)
(-3.9341394e-11 -1.6052416e-05 0)
(-4.0261172e-11 -1.7006975e-05 0)
(-4.1093182e-11 -1.7955186e-05 0)
(-4.1847113e-11 -1.889496e-05 0)
(-4.2535386e-11 -1.9824394e-05 0)
(-4.3166497e-11 -2.0741765e-05 0)
(-4.3744642e-11 -2.1645531e-05 0)
(-4.4279183e-11 -2.2534327e-05 0)
(-4.4805102e-11 -2.3406965e-05 0)
(-4.5382646e-11 -2.4262429e-05 0)
(-4.6059195e-11 -2.5099876e-05 0)
(-4.6804602e-11 -2.5918634e-05 0)
(-4.7509614e-11 -2.6718179e-05 0)
(-4.8052678e-11 -2.7498023e-05 0)
(-4.8389842e-11 -2.8257248e-05 0)
(-4.8617379e-11 -2.8992955e-05 0)
(-4.8785301e-11 -2.9697569e-05 0)
(-4.8757845e-11 -3.0386016e-05 0)
(0 0 0)
(9.8040225e-08 -9.5650015e-08 0)
(1.910666e-07 -2.7437301e-07 0)
(2.7757897e-07 -5.3991467e-07 0)
(3.5765732e-07 -8.8730169e-07 0)
(4.3157191e-07 -1.3106837e-06 0)
(4.9955234e-07 -1.8040871e-06 0)
(5.6181053e-07 -2.3616973e-06 0)
(6.1855273e-07 -2.9778982e-06 0)
(6.6998337e-07 -3.6472781e-06 0)
(7.1630595e-07 -4.3646293e-06 0)
(7.5772315e-07 -5.1249473e-06 0)
(7.9443682e-07 -5.9234301e-06 0)
(8.266479e-07 -6.7554774e-06 0)
(8.5455638e-07 -7.6166895e-06 0)
(8.7836119e-07 -8.5028663e-06 0)
(8.9826017e-07 -9.4100064e-06 0)
(9.1445001e-07 -1.0334306e-05 0)
(9.2712616e-07 -1.1272156e-05 0)
(9.3648279e-07 -1.2220145e-05 0)
(9.4271274e-07 -1.3175053e-05 0)
(9.4600747e-07 -1.4133854e-05 0)
(9.4655701e-07 -1.5093711e-05 0)
(9.4454991e-07 -1.6051978e-05 0)
(9.401732e-07 -1.7006196e-05 0)
(9.3361239e-07 -1.7954092e-05 0)
(9.2505137e-07 -1.889358e-05 0)
(9.1467242e-07 -1.9822754e-05 0)
(9.0265614e-07 -2.0739893e-05 0)
(8.8918146e-07 -2.1643454e-05 0)
(8.744256e-07 -2.2532071e-05 0)
(8.5856427e-07 -2.3404556e-05 0)
(8.4177196e-07 -2.4259893e-05 0)
(8.2422263e-07 -2.5097241e-05 0)
(8.0609199e-07 -2.5915934e-05 0)
(7.8756666e-07 -2.6715474e-05 0)
(7.6888138e-07 -2.7495496e-05 0)
(7.504515e-07 -2.8255452e-05 0)
(7.3313631e-07 -2.8993034e-05 0)
(7.1808198e-07 -2.969352e-05 0)
(6.9144773e-07 -3.0318801e-05 0)
(6.4414202e-08 -3.2735057e-08 0)
(2.2011555e-07 -1.3468489e-07 0)
(3.9938759e-07 -3.1432482e-07 0)
(5.7009861e-07 -5.7730195e-07 0)
(7.2948065e-07 -9.2191657e-07 0)
(8.7678935e-07 -1.3425788e-06 0)
(1.0122743e-06 -1.8333589e-06 0)
(1.1363213e-06 -2.3884402e-06 0)
(1.2493382e-06 -3.0022051e-06 0)
(1.3517336e-06 -3.6692409e-06 0)
(1.4439146e-06 -4.3843393e-06 0)
(1.5262867e-06 -5.1424956e-06 0)
(1.5992538e-06 -5.9389075e-06 0)
(1.6632179e-06 -6.768974e-06 0)
(1.718579e-06 -7.6282951e-06 0)
(1.7657353e-06 -8.5126702e-06 0)
(1.8050826e-06 -9.4180973e-06 0)
(1.8370143e-06 -1.0340772e-05 0)
(1.8619215e-06 -1.1277085e-05 0)
(1.8801926e-06 -1.2223625e-05 0)
(1.8922135e-06 -1.317717e-05 0)
(1.8983671e-06 -1.4134693e-05 0)
(1.8990336e-06 -1.5093357e-05 0)
(1.8945902e-06 -1.6050516e-05 0)
(1.885411e-06 -1.700371e-05 0)
(1.8718673e-06 -1.7950666e-05 0)
(1.8543267e-06 -1.8889295e-05 0)
(1.8331541e-06 -1.9817693e-05 0)
(1.8087107e-06 -2.0734136e-05 0)
(1.7813542e-06 -2.1637081e-05 0)
(1.7514389e-06 -2.2525162e-05 0)
(1.7193155e-06 -2.3397189e-05 0)
(1.6853325e-06 -2.4252146e-05 0)
(1.6498366e-06 -2.5089195e-05 0)
(1.6131729e-06 -2.5907672e-05 0)
(1.5756712e-06 -2.6707097e-05 0)
(1.5375264e-06 -2.7487131e-05 0)
(1.4978149e-06 -2.8247125e-05 0)
(1.4504233e-06 -2.8982162e-05 0)
(1.3517287e-06 -2.9667076e-05 0)
(1.1516718e-06 -3.01217e-05 0)
)
;

boundaryField
{
    left
    {
        type            calculated;
    }
    right
    {
        type            calculated;
    }
    top
    {
        type            calculated;
    }
    bottom
    {
        type            calculated;
    }
    frontAndBack
    {
        type            empty;
    }
}


// ************************************************************************* //
