/*--------------------------------*- C++ -*----------------------------------*\
| =========                 |                                                 |
| \\      /  F ield         | OpenFOAM: The Open Source CFD Toolbox           |
|  \\    /   O peration     | Version:  2512                                  |
|   \\  /    A nd           | Website:  www.openfoam.com                      |
|    \\/     M anipulation  |                                                 |
\*---------------------------------------------------------------------------*/
FoamFile
{
    version     2.0;
    format      ascii;
    arch        "LSB;label=32;scalar=64";
    class       volSymmTensorField;
    location    "0.5";
    object      sigma;
}
// * * * * * * * * * * * * * * * * * * * * * * * * * * * * * * * * * * * * * //

dimensions      [1 -1 -2 0 0 0 0];

internalField   nonuniform List<symmTensor> 
160
(
(-940741.98 -17093.569 -9.9420747e-11 60856.644 9.9420747e-12 -159979.15)
(-1007811.6 -43026.182 -7.9536597e-11 73093.42 -1.5907319e-10 -169948.76)
(-949623.66 -42582.74 -2.3860979e-10 79828.802 3.9768299e-10 -158144.52)
(-884044.9 -42553.23 3.1814639e-10 74331.643 7.9536597e-10 -147220.59)
(-816726.67 -41545.78 -1.5907319e-10 68637.09 -1.2725856e-09 -136016.29)
(-751173.02 -40377.766 3.1814639e-10 63110.802 -6.3629278e-10 -125102.22)
(-687815.91 -39170.12 -6.3629278e-10 57814.5 -1.2725856e-09 -114545.71)
(-626723.53 -37956.205 0 52719.299 6.3629278e-10 -104364.41)
(-567893.69 -36741.734 9.5443917e-10 47815.672 -2.5451711e-09 -94559.639)
(-511318.18 -35527.885 -3.1814639e-10 43100.51 -2.5451711e-09 -85130.485)
(-456988.21 -34314.946 -6.3629278e-10 38572.577 -2.5451711e-09 -76075.57)
(-404894.53 -33103.065 -6.3629278e-10 34230.996 -1.145327e-08 -67393.37)
(-355027.16 -31892.336 -6.3629278e-10 30074.915 5.0903422e-09 -59082.227)
(-307375.39 -30682.859 -3.1814639e-10 26103.433 -7.6355133e-09 -51140.355)
(-261927.73 -29474.714 -2.8633175e-09 22315.595 -2.5451711e-09 -43565.842)
(-218671.98 -28267.992 1.2725856e-09 18710.382 2.5451711e-09 -36356.654)
(-177595.23 -27062.767 -1.5907319e-09 15286.721 1.5271027e-08 -29510.638)
(-138683.91 -25859.12 3.1814639e-10 12043.483 2.5451711e-09 -23025.533)
(-101923.82 -24657.117 -6.3629278e-10 8979.4869 2.5451711e-09 -16898.969)
(-67300.159 -23456.829 -1.2725856e-09 6093.5009 1.5271027e-08 -11128.483)
(-34797.588 -22258.311 0 3384.2502 5.0903422e-09 -5711.516)
(-4400.2663 -21061.624 -3.1814639e-10 850.41386 1.0180684e-08 -645.42772)
(23908.124 -19866.822 -9.5443917e-10 -1509.3659 -2.5451711e-08 4072.5016)
(50144.32 -18673.966 0 -3696.4875 5.0903422e-09 8445.0605)
(74325.463 -17483.122 3.1814639e-10 -5712.3819 -5.0903422e-09 12475.106)
(96469.056 -16294.378 9.5443917e-10 -7558.529 0 16165.55)
(116593.03 -15107.899 0 -9236.4417 -1.0180684e-08 19519.38)
(134715.87 -13923.93 6.3629278e-10 -10747.686 -1.0180684e-08 22539.669)
(150856.76 -12742.771 9.5443917e-10 -12093.764 -2.0361369e-08 25229.637)
(165035.17 -11564.238 -6.3629278e-10 -13275.968 1.0180684e-08 27592.581)
(177269.09 -10387.582 9.5443917e-10 -14295.256 -1.0180684e-08 29631.606)
(187573.09 -9212.401 9.5443917e-10 -15151.6 -5.0903422e-09 31349.362)
(195956.26 -8041.8594 3.1814639e-10 -15841.125 3.0542053e-08 32748.206)
(202423.02 -6891.0809 9.5443917e-10 -16342.837 -4.0722738e-08 33832.761)
(207009.04 -5821.9444 6.3629278e-10 -16567.73 2.0361369e-08 34625.692)
(210095.11 -5093.864 -3.1814639e-10 -16269.48 -1.0180684e-08 35241.024)
(215327.54 -6069.3389 1.5907319e-09 -14920.256 -1.0180684e-08 36437.689)
(239097.89 -12266.052 -9.5443917e-10 -19070.089 2.0361369e-08 40005.055)
(417186.71 -53030.974 3.1814639e-09 -47627.878 0 67192.515)
(700275.91 21481.725 -3.1814639e-10 -685063.84 2.0361369e-08 2765.8313)
(-375637.3 -122064.8 -3.728278e-11 -31134.544 -2.9826224e-11 -73958.518)
(-343750.88 -105449.67 -1.3918905e-10 27509.845 -7.9536597e-11 -57498.37)
(-319107.42 -97694.818 -3.5791469e-10 28170.338 0 -52897.651)
(-295491.59 -93142.199 -3.9768299e-11 25558.833 4.7721958e-10 -49078.683)
(-272817.29 -89917.082 -1.193049e-10 23283.819 3.1814639e-10 -45369.722)
(-250929.56 -86986.721 -4.7721958e-10 21354.565 -9.5443917e-10 -41740.907)
(-229806.5 -84119.271 -2.3860979e-10 19570.318 6.3629278e-10 -38224.76)
(-209440.79 -81266.748 7.9536597e-11 17867.919 -6.3629278e-10 -34831.431)
(-189829.07 -78421.634 -5.5675618e-10 16231.895 5.0903422e-09 -31563.123)
(-170968.5 -75583.362 -7.1582938e-10 14659.009 -3.8177567e-09 -28419.908)
(-152856.22 -72752.427 -3.9768299e-10 13148.49 3.8177567e-09 -25401.406)
(-135489.15 -69929.466 -6.3629278e-10 11699.993 -1.0180684e-08 -22507.119)
(-118863.97 -67115.121 -4.7721958e-10 10313.225 -2.5451711e-09 -19736.499)
(-102977.11 -64310.029 -4.7721958e-10 8987.887 5.0903422e-09 -17088.95)
(-87824.761 -61514.809 -3.1814639e-10 7723.6617 7.6355133e-09 -14563.836)
(-73402.855 -58730.06 -6.3629278e-10 6520.2148 1.0180684e-08 -12160.48)
(-59707.103 -55956.352 -6.3629278e-10 5377.1933 7.6355133e-09 -9878.1654)
(-46732.991 -53194.229 0 4294.2264 -2.5451711e-09 -7716.139)
(-34475.797 -50444.201 -4.7721958e-10 3270.926 -1.2725856e-08 -5673.6129)
(-22930.6 -47706.744 -1.5907319e-10 2306.8884 1.5271027e-08 -3749.7658)
(-12092.301 -44982.3 -7.9536597e-10 1401.6941 5.0903422e-09 -1943.7467)
(-1955.6292 -42271.282 -9.5443917e-10 554.90946 5.0903422e-09 -254.67631)
(7484.8368 -39574.075 -6.3629278e-10 -233.91271 0 1318.3498)
(16234.66 -36891.048 -1.4316588e-09 -965.23264 -2.5451711e-08 2776.2596)
(24299.533 -34222.561 -1.1135124e-09 -1639.5231 1.0180684e-08 4120.0017)
(31685.273 -31569.01 -9.5443917e-10 -2257.285 5.0903422e-09 5350.5433)
(38397.846 -28930.876 -3.1814639e-10 -2819.0444 -1.5271027e-08 6468.8731)
(44443.399 -26308.744 -1.1135124e-09 -3325.3785 -1.0180684e-08 7476.0037)
(49828.206 -23702.919 0 -3776.7887 -2.0361369e-08 8372.985)
(54558.457 -21112.593 -7.9536597e-10 -4173.516 -2.5451711e-08 9160.8984)
(58639.793 -18535.348 -4.7721958e-10 -4515.3768 -1.0180684e-08 9840.803)
(62076.897 -15967.902 -6.3629278e-10 -4801.2873 1.5271027e-08 10413.747)
(64872.85 -13407.187 -7.9536597e-10 -5026.5816 1.0180684e-08 10881.14)
(67027.421 -10843.386 -4.7721958e-10 -5166.2666 2.0361369e-08 11247.483)
(68527.677 -8208.6236 -7.9536597e-10 -5095.8272 0 11533.064)
(69313.826 -5118.9879 -7.9536597e-10 -4271.1492 3.0542053e-08 11825.941)
(69103.243 375.90307 -1.5907319e-10 -904.81749 4.0722738e-08 12399.714)
(66985.863 15986.579 -7.9536597e-10 8424.8028 0 13711.03)
(56062.857 71096.729 -3.9768299e-10 -2472.2115 -3.0542053e-08 9743.7537)
(42715.804 147533.4 -4.7721958e-10 -258510.85 2.0361369e-08 -39235.462)
(375609.72 -122063.32 1.2427593e-11 31131.966 1.9884149e-11 73953.034)
(343722.5 -105448.9 9.9420747e-11 -27508.045 -1.9884149e-10 57493.536)
(319078.75 -97693.788 -1.193049e-10 -28167.365 7.9536597e-11 52892.979)
(295462.78 -93140.724 -3.9768299e-11 -25555.635 3.1814639e-10 49074.027)
(272788.39 -89915.165 1.5907319e-10 -23280.62 -3.1814639e-10 45365.048)
(250900.61 -86984.395 1.5907319e-10 -21351.391 -6.3629278e-10 41736.222)
(229777.6 -84116.565 7.9536597e-11 -19567.161 6.3629278e-10 38220.079)
(209412.04 -81263.678 0 -17864.773 0 34826.776)
(189800.58 -78418.213 -3.1814639e-10 -16228.762 1.2725856e-09 31558.513)
(170940.4 -75579.6 -3.9768299e-10 -14655.892 2.5451711e-09 28415.366)
(152828.63 -72748.337 1.5907319e-10 -13145.398 0 25396.95)
(135462.17 -69925.056 -1.5907319e-10 -11696.938 -7.6355133e-09 22502.77)
(118837.72 -67110.406 -4.7721958e-10 -10310.225 5.0903422e-09 19732.271)
(102951.69 -64305.02 1.5907319e-10 -8984.9575 2.5451711e-09 17084.86)
(87800.255 -61509.521 -6.3629278e-10 -7720.8214 1.5271027e-08 14559.897)
(73379.358 -58724.505 6.3629278e-10 -6517.4801 2.5451711e-09 12156.705)
(59684.694 -55950.547 6.3629278e-10 -5374.5795 -2.5451711e-09 9874.5662)
(46711.742 -53188.189 3.1814639e-10 -4291.7461 -5.0903422e-09 7712.7265)
(34455.77 -50437.942 1.5907319e-10 -3268.5904 -1.0180684e-08 5670.3963)
(22911.854 -47700.283 -7.9536597e-10 -2304.7047 3.0542053e-08 3746.7544)
(12074.88 -44975.656 1.5907319e-10 -1399.6676 5.0903422e-09 1940.9476)
(1939.5664 -42264.473 -3.1814639e-10 -553.0414 -1.0180684e-08 252.09545)
(-7499.5321 -39567.12 -1.5907319e-10 235.62378 0 -1320.7106)
(-16248.01 -36883.963 0 966.79602 -5.0903422e-09 -2778.4026)
(-24311.612 -34215.364 4.7721958e-10 1640.9528 1.0180684e-08 -4121.938)
(-31696.217 -31561.715 -1.5907319e-10 2258.5806 5.0903422e-09 -5352.2976)
(-38407.855 -28923.517 -1.5907319e-10 2820.1136 -1.0180684e-08 -6470.4985)
(-44452.699 -26301.398 -3.1814639e-10 3325.8943 5.0903422e-09 -7477.6009)
(-49837.039 -23695.64 0 3776.252 -1.5271027e-08 -8374.6886)
(-54567.082 -21105.373 -1.5907319e-10 4171.6957 5.0903422e-09 -9162.7975)
(-58648.541 -18528.036 0 4512.9555 -4.0722738e-08 -9842.8338)
(-62086.094 -15960.364 0 4799.9621 -2.5451711e-08 -10415.66)
(-64882.737 -13399.581 3.1814639e-10 5027.7031 0 -10882.734)
(-67037.725 -10836.087 0 5169.1809 -2.0361369e-08 -11248.826)
(-68537.654 -8201.844 0 5097.9616 2.0361369e-08 -11534.49)
(-69322.549 -5112.6063 4.7721958e-10 4270.2516 -5.0903422e-08 -11827.69)
(-69109.931 382.21135 0 901.29835 -4.0722738e-08 -12401.57)
(-66990.827 15992.842 0 -8428.5741 -3.0542053e-08 -13712.618)
(-56066.447 71102.445 3.9768299e-10 2469.3244 -1.0180684e-08 -9744.9314)
(-42717.312 147537.19 -1.5907319e-10 258505.15 2.0361369e-08 39234.153)
(940718.39 -17092.793 1.7895734e-10 -60855.471 -7.9536597e-11 159975.08)
(1007785.6 -43025.554 2.3860979e-10 -73091.564 -7.9536597e-11 169944.37)
(949596.65 -42581.799 7.1582938e-10 -79826.366 -1.5907319e-10 158140.05)
(884017.24 -42551.78 -1.5907319e-10 -74329.073 -4.7721958e-10 147216.03)
(816698.7 -41543.868 0 -68634.481 3.1814639e-10 136011.68)
(751144.92 -40375.44 6.3629278e-10 -63108.182 9.5443917e-10 125097.59)
(687787.81 -39167.414 6.3629278e-10 -57811.881 0 114541.08)
(626695.56 -37953.133 1.9088783e-09 -52716.689 -1.9088783e-09 104359.79)
(567865.96 -36738.313 1.5907319e-09 -47813.078 -2.5451711e-09 94555.069)
(511290.81 -35524.122 9.5443917e-10 -43097.941 2.5451711e-09 85125.976)
(456961.32 -34310.856 -6.3629278e-10 -38570.041 -5.0903422e-09 76071.142)
(404868.23 -33098.654 9.5443917e-10 -34228.503 -8.9080989e-09 67389.041)
(355001.56 -31887.621 0 -30072.476 2.5451711e-09 59078.015)
(307350.58 -30677.849 1.9088783e-09 -26101.06 0 51136.275)
(261903.8 -29469.426 3.1814639e-10 -22313.299 0 43561.91)
(218649.03 -28262.437 6.3629278e-10 -18708.174 2.0361369e-08 36352.882)
(177573.33 -27056.962 3.8177567e-09 -15284.611 -1.0180684e-08 29507.04)
(138663.14 -25853.079 0 -12041.479 -7.6355133e-09 23022.119)
(101904.23 -24650.859 3.1814639e-10 -8977.5968 7.6355133e-09 16895.751)
(67281.806 -23450.368 6.3629278e-10 -6091.7307 -1.0180684e-08 11125.468)
(34780.519 -22251.667 1.9088783e-09 -3382.603 -5.0903422e-09 5708.712)
(4384.5071 -21054.815 1.5907319e-09 -848.8921 -5.0903422e-09 642.8391)
(-23922.566 -19859.868 1.2725856e-09 1510.7626 -5.0903422e-09 -4074.8733)
(-50157.469 -18666.881 2.5451711e-09 3697.7629 -3.0542053e-08 -8447.2193)
(-74337.376 -17475.924 2.2270247e-09 5713.5412 -1.0180684e-08 -12477.061)
(-96479.824 -16287.072 2.2270247e-09 7559.5711 -1.5271027e-08 -16167.319)
(-116602.78 -15100.518 9.5443917e-10 9237.3302 -3.0542053e-08 -19520.99)
(-134724.86 -13916.585 2.2270247e-09 10748.28 0 -22541.196)
(-150865.47 -12735.536 6.3629278e-10 12093.873 -5.0903422e-09 -25231.2)
(-165044.14 -11557.105 1.5907319e-09 13275.576 -1.0180684e-08 -27594.285)
(-177278.63 -10380.309 1.5907319e-09 14294.767 -5.0903422e-09 -29633.429)
(-187582.81 -9204.7505 6.3629278e-10 15151.795 -2.5451711e-08 -31351.093)
(-195965.71 -8034.0661 6.3629278e-10 15842.415 4.0722738e-08 -32749.69)
(-202432.06 -6883.7058 9.5443917e-10 16344.705 -2.0361369e-08 -33834.065)
(-207018.08 -5815.2981 9.5443917e-10 16568.949 1.0180684e-08 -34627.115)
(-210104.53 -5087.7249 1.2725856e-09 16269.137 0 -35242.8)
(-215336.27 -6063.0739 9.5443917e-10 14918.811 0 -36439.539)
(-239104.11 -12259.568 3.1814639e-10 19068.828 -4.0722738e-08 -40006.415)
(-417190 -53025.053 1.2725856e-09 47627.306 -2.0361369e-08 -67193.216)
(-700277.03 21485.114 2.2270247e-09 685065.11 -2.0361369e-08 -2765.8038)
)
;

boundaryField
{
    left
    {
        type            calculated;
        value           nonuniform List<symmTensor> 4((-1174815.4 -61002.791 0 -14851.883 0 -216303.14) (-347433.39 -91924.451 0 -77207.419 0 -77207.419) (347406.92 -91922.38 0 77201.538 0 77201.538) (1174788.1 -60999.479 0 14851.638 0 216298.14));
    }
    right
    {
        type            calculated;
        value           nonuniform List<symmTensor> 4((121056.46 2051.4965 0 -1455564.7 0 -242637.85) (41283.897 3068.9281 0 -496378.88 0 -82744.543) (-41283.171 3068.9051 0 496370.23 0 82743.102) (-121056.7 2051.4711 0 1455567.5 0 242638.33));
    }
    top
    {
        type            calculated;
        value           nonuniform List<symmTensor> 
40
(
(1149810.8 -146.60941 0 -95743.343 0 191648.63)
(1323875.5 -280.97135 0 -110229.15 0 220662.97)
(1260656.3 -448.40216 0 -104958.29 0 210126.91)
(1176996.1 -624.19738 0 -97986.632 0 196183.55)
(1087838.9 -799.67735 0 -90557.784 0 181323.84)
(1000524.8 -973.21381 0 -83282.883 0 166771.26)
(916059.58 -1144.1785 0 -76245.644 0 152693.44)
(834606.35 -1312.1112 0 -69459.651 0 139117.58)
(756170.02 -1476.5715 0 -62925.306 0 126044.49)
(680740.06 -1637.1273 0 -56641.727 0 113472.42)
(608304.68 -1793.3559 0 -50607.923 0 101399.41)
(538851.48 -1944.8462 0 -44822.856 0 89823.387)
(472367.16 -2091.1997 0 -39285.41 0 78742.137)
(408837.41 -2232.0319 0 -33994.384 0 68153.277)
(348246.9 -2366.9728 0 -28948.493 0 58054.257)
(290579.35 -2495.6682 0 -24146.37 0 48442.36)
(235817.52 -2617.781 0 -19586.571 0 39314.717)
(183943.28 -2732.9912 0 -15267.574 0 30668.31)
(134937.67 -2840.9976 0 -11187.79 0 22499.979)
(88780.944 -2941.518 0 -7345.5607 0 14806.433)
(45452.614 -3034.2902 0 -3739.1692 0 7584.2626)
(4931.5167 -3119.0726 0 -366.84017 0 829.94118)
(-32804.138 -3195.6447 0 2773.254 0 -5460.1606)
(-67776.712 -3263.8078 0 5682.9889 0 -11289.768)
(-100009.1 -3323.3852 0 8364.2842 0 -16662.693)
(-129524.64 -3374.2226 0 10819.098 0 -21582.825)
(-156347.24 -3416.1883 0 13049.436 0 -26054.146)
(-180501.82 -3449.1738 0 15057.386 0 -30080.806)
(-202014.57 -3473.0966 0 16845.146 0 -33667.167)
(-220912.1 -3487.9036 0 18414.947 0 -36817.664)
(-237218.53 -3493.5715 0 19768.813 0 -39536.312)
(-250952.3 -3490.0983 0 20908.29 0 -41826.184)
(-262125.48 -3477.494 0 21834.394 0 -43689.289)
(-270750.48 -3455.7896 0 22548.172 0 -45127.692)
(-276940.15 -3425.069 0 23059.031 0 -46160.203)
(-281689.83 -3385.2929 0 23449.776 0 -46952.737)
(-293261.33 -3334.474 0 24407.536 0 -48882.508)
(-349978.33 -3252.9453 0 29119.572 0 -58337.957)
(-728846.67 -3049.4842 0 60623.592 0 -121495.1)
(-1477396.4 -2031.4964 0 122872.64 0 -246277.05)
)
;
    }
    bottom
    {
        type            calculated;
        value           nonuniform List<symmTensor> 
40
(
(-1149831.2 -146.59342 0 95745.054 0 -191652.03)
(-1323899.8 -280.96515 0 110231.19 0 -220667.02)
(-1260682.3 -448.40052 0 104960.47 0 -210131.24)
(-1177023.2 -624.19698 0 97988.899 0 -196188.05)
(-1087866.4 -799.67727 0 90560.09 0 -181328.41)
(-1000552.5 -973.21383 0 83285.204 0 -166775.87)
(-916087.27 -1144.1786 0 76247.966 0 -152698.05)
(-834633.93 -1312.1114 0 69461.964 0 -139122.18)
(-756197.36 -1476.5719 0 62927.6 0 -126049.05)
(-680767.06 -1637.1277 0 56643.991 0 -113476.92)
(-608331.22 -1793.3565 0 50610.149 0 -101403.83)
(-538877.45 -1944.8469 0 44825.034 0 -89827.711)
(-472392.44 -2091.2007 0 39287.53 0 -78746.348)
(-408861.91 -2232.0329 0 33996.439 0 -68157.359)
(-348270.54 -2366.9739 0 28950.475 0 -58058.193)
(-290602.03 -2495.6695 0 24148.273 0 -48446.138)
(-235839.16 -2617.7824 0 19588.386 0 -39318.323)
(-183963.82 -2732.9927 0 15269.297 0 -30671.732)
(-134957.05 -2840.9991 0 11189.415 0 -22503.206)
(-88799.106 -2941.5196 0 7347.0839 0 -14809.459)
(-45469.513 -3034.2919 0 3740.5865 0 -7587.0776)
(-4947.1325 -3119.0743 0 368.14978 0 -832.54232)
(32789.812 -3195.6464 0 -2772.0526 0 5457.7744)
(67763.65 -3263.8094 0 -5681.8934 0 11287.592)
(99997.253 -3323.3867 0 -8363.291 0 16660.72)
(129513.96 -3374.224 0 -10818.203 0 21581.047)
(156337.67 -3416.19 0 -13048.633 0 26052.553)
(180493.07 -3449.1766 0 -15056.652 0 30079.348)
(202006 -3473.1003 0 -16844.427 0 33665.74)
(220902.89 -3487.9066 0 -18414.175 0 36816.131)
(237208.37 -3493.5706 0 -19767.961 0 39534.62)
(250942.09 -3490.092 0 -20907.434 0 41824.483)
(262116.27 -3477.4865 0 -21833.622 0 43687.755)
(270742.41 -3455.7881 0 -22547.495 0 45126.348)
(276931.97 -3425.0762 0 -23058.345 0 46158.84)
(281680.19 -3385.3039 0 -23448.968 0 46951.132)
(293251.44 -3334.4795 0 -24406.706 0 48880.86)
(349971.41 -3252.9436 0 -29118.991 0 58336.804)
(728843.77 -3049.4835 0 -60623.35 0 121494.62)
(1477394.5 -2031.5044 0 -122872.48 0 246276.74)
)
;
    }
    frontAndBack
    {
        type            empty;
    }
}


// ************************************************************************* //
