/*--------------------------------*- C++ -*----------------------------------*\
| =========                 |                                                 |
| \\      /  F ield         | OpenFOAM: The Open Source CFD Toolbox           |
|  \\    /   O peration     | Version:  2512                                  |
|   \\  /    A nd           | Website:  www.openfoam.com                      |
|    \\/     M anipulation  |                                                 |
\*---------------------------------------------------------------------------*/
FoamFile
{
    version     2.0;
    format      ascii;
    arch        "LSB;label=32;scalar=64";
    class       volScalarField;
    location    "0.5";
    object      sigmaEq;
}
// * * * * * * * * * * * * * * * * * * * * * * * * * * * * * * * * * * * * * //

dimensions      [1 -1 -2 0 0 0 0];

internalField   nonuniform List<scalar> 
160
(
911951.75
985024.59
936408.74
872165.61
806062.94
741697.08
679528.24
619605.09
561922.41
506474.38
453257.23
402268.97
353510.07
306985.13
262706.2
220699.02
181016.1
143766.49
109193.19
77909.628
51764.755
36779.465
41465.659
58640.345
78728.22
98555.223
117159.59
134191
149503.1
163030.6
174743.68
184627.6
192670.64
198851.31
203133.85
205698.68
209611.89
235245.91
429305.23
1200326
387894.98
383222.66
357286.41
332728.32
310348.24
289205.56
268969.27
249560.22
230968.95
213202.41
196272.62
180195.02
164988.83
150677.83
137291.35
124865.15
113442.26
103073.02
93813.885
85723.739
78856.569
73249.639
68908.123
65790.045
63797.814
62781.799
62556.097
62920.642
63681.308
64663.124
65716.709
66719.987
67574.429
68184.365
68372.565
67586.781
64398.281
62565.861
134256.31
371572.21
387873.72
383197.87
357260.39
332701.82
310321.51
289178.71
268942.41
249533.44
230942.38
213176.17
196246.84
180169.82
164964.35
150654.2
137268.68
124843.6
113421.95
103054.08
93796.446
85707.929
78842.494
73237.364
68897.659
65781.331
63790.737
62776.218
62551.878
62917.599
63679.106
64661.512
65716.015
66721.408
67579.23
68192.06
68380.642
67592.66
64402.07
62572.567
134265.88
371573.76
911929.11
984999.27
936382.02
872138.13
806035.07
741669.02
679500.11
619577
561894.47
506446.69
453229.89
402242.09
353483.72
306959.4
262681.15
220674.69
180992.51
143743.65
109171.06
77888.255
51744.884
36765.78
41463.663
58644.464
78734.343
98561.838
117166.12
134197.29
149509.27
163037
174750.77
184635.52
192679.29
198860.23
203142.5
205706.65
209618.33
235249.68
429305.58
1200328.2
)
;

boundaryField
{
    left
    {
        type            calculated;
        value           nonuniform List<scalar> 4(1078696.4 313643.73 313624.17 1078671);
    }
    right
    {
        type            calculated;
        value           nonuniform List<scalar> 4(1429899.4 487654.69 487646.19 1429902.2);
    }
    top
    {
        type            calculated;
        value           nonuniform List<scalar> 
40
(
1129618.1
1300619.8
1238506.2
1156311.5
1068716.9
982933.6
899949.58
819925.23
742865.4
668759.82
597596.98
529364.84
464050.51
401640.21
342119.3
285472.5
231684.14
180738.9
132623.86
87336.015
44929.417
7235.3119
32730
66854.662
98448.036
127408.78
153737.82
177452.42
198575.29
217131.1
233142.75
246627.87
257598.03
266065.23
272140.2
276800.43
288160.25
343861.63
716017.54
1451346.3
)
;
    }
    bottom
    {
        type            calculated;
        value           nonuniform List<scalar> 
40
(
1129638.2
1300643.7
1238531.7
1156338.1
1068743.9
982960.79
899976.79
819952.33
742892.27
668786.35
597623.06
529390.36
464075.36
401664.29
342142.53
285494.79
231705.41
180759.09
132642.9
87353.836
44945.914
7245.5327
32716.123
66841.869
98436.415
127398.3
153728.43
177443.82
198566.87
217122.06
233132.77
246617.84
257588.99
266057.3
272132.16
276790.96
288150.53
343854.83
716014.69
1451344.4
)
;
    }
    frontAndBack
    {
        type            empty;
    }
}


// ************************************************************************* //
