/*--------------------------------*- C++ -*----------------------------------*\
| =========                 |                                                 |
| \\      /  F ield         | OpenFOAM: The Open Source CFD Toolbox           |
|  \\    /   O peration     | Version:  2512                                  |
|   \\  /    A nd           | Website:  www.openfoam.com                      |
|    \\/     M anipulation  |                                                 |
\*---------------------------------------------------------------------------*/
FoamFile
{
    version     2.0;
    format      ascii;
    arch        "LSB;label=32;scalar=64";
    class       surfaceSymmTensorField;
    location    "0.5";
    object      sigmaf;
}
// * * * * * * * * * * * * * * * * * * * * * * * * * * * * * * * * * * * * * //

dimensions      [1 -1 -2 0 0 0 0];

internalField   nonuniform List<symmTensor> 
276
(
(-1160825 -39446.322 0 -35961.065 0 -276181.4)
(-790232.34 -122239.08 0 -19606.328 0 -186885.85)
(-1075569.9 -42504.231 0 -3047.7367 0 -248911.77)
(-742715.7 -85526.432 0 5083.8081 0 -170222.74)
(-997355.98 -43950.856 0 -99.393951 0 -230182.01)
(-691084.79 -78664.034 0 3482.1126 0 -158677.54)
(-922508.97 -43426.025 0 175.71759 0 -212846.14)
(-640204.07 -75474.224 0 1511.5785 0 -147390.58)
(-850195.62 -42326.027 0 111.68343 0 -196173.22)
(-591066.95 -73116.686 0 935.66821 0 -136184.14)
(-780336.81 -41093.248 0 82.446353 0 -180058.7)
(-543634.16 -70835.77 0 801.02761 0 -125269.18)
(-712929.41 -39835.289 0 74.232578 0 -164505.04)
(-497864.28 -68555.8 0 774.18071 0 -114713.1)
(-647971.64 -38573.894 0 73.083913 0 -149515.05)
(-453737.99 -66274.174 0 768.15252 0 -104531.5)
(-585458.27 -37312.558 0 73.753295 0 -135088.73)
(-411245.93 -63994.658 0 765.94556 0 -94726.15)
(-525381.11 -36052.387 0 75.018851 0 -121224.48)
(-370381.65 -61719.063 0 763.88917 0 -85296.406)
(-467731.23 -34793.194 0 76.461988 0 -107920.33)
(-331138.64 -59448.413 0 762.06959 0 -76240.748)
(-412498.06 -33535.535 0 78.104051 0 -95173.835)
(-293510.43 -57183.235 0 759.7875 0 -67557.84)
(-359670.73 -32279.076 0 79.826421 0 -82982.517)
(-257489.6 -54924.106 0 757.67815 0 -59245.829)
(-309236.98 -31024.39 0 81.710254 0 -71343.523)
(-223068.64 -52671.412 0 755.05584 0 -51303.136)
(-261184.24 -29771.089 0 83.662 0 -60253.979)
(-190239.06 -50425.663 0 752.6395 0 -43727.636)
(-215498.67 -28519.78 0 85.758372 0 -49710.673)
(-158992.28 -48187.215 0 749.6891 0 -36517.52)
(-172166.19 -27270.027 0 87.916642 0 -39710.371)
(-129318.75 -45956.53 0 746.98705 0 -29670.408)
(-131171.54 -26022.463 0 90.203525 0 -30249.54)
(-101208.95 -43733.933 0 743.74014 0 -23184.279)
(-92499.243 -24776.606 0 92.546511 0 -21324.622)
(-74652.377 -41519.834 0 740.78418 0 -17056.521)
(-56132.794 -23533.107 0 95.001189 0 -12931.798)
(-49638.631 -39314.519 0 737.27877 0 -11284.927)
(-22055.491 -22291.444 0 97.505474 0 -5067.2274)
(-26156.391 -37118.341 0 734.10384 0 -5866.6815)
(9750.2265 -21052.286 0 100.10329 0 2273.153)
(-4194.5 -34931.551 0 730.37696 0 -799.41301)
(39302.112 -19815.084 0 102.74304 0 9093.4282)
(16259.075 -32754.455 0 727.01219 0 3919.8662)
(66618.636 -18580.531 0 105.45663 0 15397.868)
(35216.128 -30587.282 0 723.09202 0 8293.6662)
(91718.459 -17348.078 0 108.20429 0 21190.768)
(52689.3 -28430.32 0 719.54551 0 12325.118)
(114620.89 -16118.457 0 110.99495 0 26476.59)
(68690.96 -26283.838 0 715.43792 0 16016.861)
(135345.56 -14891.302 0 113.80497 0 31259.854)
(83234.323 -24148.239 0 711.62114 0 19372.141)
(153912.88 -13667.496 0 116.60433 0 35545.267)
(96332.468 -22023.998 0 707.30532 0 22393.794)
(170343.57 -12446.885 0 119.49196 0 39337.63)
(107999.15 -19911.522 0 703.15227 0 25085.146)
(184658.26 -11229.281 0 122.82629 0 42641.788)
(118247.69 -17810.439 0 699.19446 0 27449.28)
(196876.29 -10013.384 0 127.69322 0 45462.457)
(127090.51 -15719.633 0 696.41665 0 29489.29)
(207017.45 -8799.9182 0 137.92719 0 47805.088)
(134537.64 -13639.064 0 696.10463 0 31207.788)
(215107.08 -7597.112 0 167.17213 0 49678.673)
(140594.98 -11575.287 0 703.72922 0 32607.394)
(221196.57 -6444.905 0 267.36941 0 51107.064)
(145257.61 -9551.9889 0 746.02917 0 33693.148)
(225394.38 -5526.8204 0 607.01989 0 52154.17)
(148481.97 -7629.2159 0 967.76859 0 34488.4)
(227911.91 -5715.1493 0 1457.5599 0 52931.417)
(150091.3 -5906.8257 0 2061.5004 0 35112.184)
(228669.46 -10803.365 0 1986.1972 0 53228.229)
(149517.16 -4094.0495 0 6950.9453 0 36108.023)
(224326.43 -33103.229 0 -19682.803 0 47225.453)
(145758.23 1071.7395 0 24139.474 0 39207.162)
(181699.31 -95469.936 0 -157042.5 0 5690.0341)
(139631.1 39449.822 0 64000.292 0 46991.86)
(184144.22 178785.43 0 -96429.511 0 20241.856)
(-391871.1 -109382.62 0 -6218.999 0 -91866.946)
(-14.942916 -116378.83 0 -1.7913447 0 -3.8617526)
(-361936.21 -102156.95 0 1098.1664 0 -83270.317)
(-15.678372 -115457.34 0 0.040888171 0 -3.6086501)
(-334001.07 -96533.287 0 897.42142 0 -76870.072)
(-15.796668 -106598.21 0 0.56423049 0 -3.5151778)
(-308334.18 -92881.095 0 459.54717 0 -71047.992)
(-15.846678 -101140.67 0 0.55886047 0 -3.5279579)
(-284028.49 -89807.057 0 330.86003 0 -65468.683)
(-15.853591 -97421.633 0 0.58052089 0 -3.5245546)
(-260688.78 -86870.447 0 302.19028 0 -60089.212)
(-15.874347 -94174.6 0 0.49869276 0 -3.548228)
(-238204.35 -83964.41 0 297.07551 0 -54901.678)
(-15.822263 -91038.932 0 0.54700848 0 -3.5250588)
(-216546.23 -81068.479 0 296.06263 0 -49903.884)
(-15.750867 -87930.823 0 0.48619303 0 -3.522617)
(-195705.18 -78179.701 0 295.5611 0 -45094.528)
(-15.579921 -84833.81 0 0.56110397 0 -3.465881)
(-175676.89 -75298.171 0 295.00184 0 -40472.744)
(-15.383395 -81745.274 0 0.50408666 0 -3.4336865)
(-156457.57 -72424.501 0 294.38959 0 -36037.657)
(-15.081219 -78665.263 0 0.58983743 0 -3.344165)
(-138043.8 -69559.325 0 293.69223 0 -31788.487)
(-14.760729 -75594.352 0 0.52136016 0 -3.2860082)
(-120431.66 -66703.321 0 292.95304 0 -27724.317)
(-14.336032 -72533.228 0 0.60534028 0 -3.1686212)
(-103617.29 -63857.113 0 292.1396 0 -23844.265)
(-13.90434 -69482.598 0 0.51714342 0 -3.0893531)
(-87596.272 -61021.345 0 291.28745 0 -20147.304)
(-13.372188 -66443.158 0 0.59447505 0 -2.9487029)
(-72364.228 -58196.598 0 290.36908 0 -16632.429)
(-12.844868 -63415.584 0 0.48662748 0 -2.8519016)
(-57916.266 -55383.464 0 289.4156 0 -13298.504)
(-12.221424 -60400.522 0 0.5582555 0 -2.6915005)
(-44247.498 -52582.462 0 288.40526 0 -10144.406)
(-11.614039 -57398.588 0 0.43473034 0 -2.5798404)
(-31352.607 -49794.12 0 287.36441 0 -7168.9021)
(-10.915322 -54410.359 0 0.50335016 0 -2.4027628)
(-19226.258 -47018.885 0 286.27703 0 -4370.7648)
(-10.243759 -51436.375 0 0.36950268 0 -2.2786746)
(-7862.7599 -44257.218 0 285.16386 0 -1748.676)
(-9.4877657 -48477.138 0 0.43918666 0 -2.0881336)
(2743.6077 -41509.502 0 284.01351 0 698.68182)
(-8.7738261 -45533.113 0 0.30161684 0 -1.9551252)
(12598.848 -38776.145 0 282.84063 0 2972.6974)
(-7.9921247 -42604.74 0 0.37665112 0 -1.757417)
(21709.008 -36057.494 0 281.63645 0 5074.7642)
(-7.2857949 -39692.43 0 0.24142437 0 -1.625624)
(30080.354 -33353.943 0 280.40755 0 7006.3295)
(-6.5562699 -36796.595 0 0.33270411 0 -1.4362075)
(37719.227 -30665.908 0 279.11295 0 8768.8476)
(-5.9683111 -33917.67 0 0.2104718 0 -1.3287321)
(44632.155 -27993.928 0 277.71605 0 10363.816)
(-5.422854 -31056.186 0 0.27774408 0 -1.187333)
(50825.762 -25338.646 0 276.06525 0 11792.729)
(-5.0586808 -28212.748 0 -0.032621874 0 -1.174916)
(56306.49 -22699.981 0 274.19899 0 13057.082)
(-4.7899534 -25387.558 0 -0.54932032 0 -1.2321401)
(61080.039 -20076.394 0 272.28235 0 14158.228)
(-4.7576344 -22579.436 0 -1.6043606 0 -1.4681527)
(65149.765 -17464.467 0 270.59142 0 15097.005)
(-4.9178734 -19784.997 0 -2.3684034 0 -1.6814485)
(68513.382 -14860.415 0 269.26268 0 15872.918)
(-5.2539161 -16998.33 0 -2.1118646 0 -1.6997955)
(71150.811 -12258.751 0 269.91971 0 16481.707)
(-5.4596997 -14208.329 0 -0.15769078 0 -1.2963209)
(72980.175 -9630.3009 0 293.62822 0 16909.339)
(-5.4833968 -11376.89 0 1.5995141 0 -0.89628063)
(73687.259 -6799.6577 0 471.48606 0 17113.557)
(-5.1649366 -8331.498 0 1.583878 0 -0.82639813)
(72080.574 -2892.4099 0 1406.4287 0 16958.539)
(-4.5075713 -4295.4088 0 -0.54352933 0 -1.1656386)
(63965.261 5892.3856 0 4815.5407 0 15872.493)
(-3.5221689 4024.4914 0 -2.7495337 0 -1.447316)
(36735.191 31851.424 0 11650.404 0 11165.906)
(-2.7457679 28293.411 0 -3.084909 0 -1.3455408)
(-22282.155 97641.577 0 -39076.002 0 -14159.575)
(-1.9117844 98395.547 0 -1.89468 0 -0.87841487)
(-0.51284884 156260.42 0 -2.4416807 0 -0.68181452)
(391839.67 -109381.76 0 6217.1233 0 91859.261)
(790202.95 -122236.59 0 19603.852 0 186878.49)
(361904.35 -102156.09 0 -1098.0282 0 83262.998)
(742685.86 -85524.935 0 -5083.7603 0 170215.87)
(333969.3 -96532.062 0 -896.77274 0 76862.89)
(691054.52 -78661.91 0 -3481.5097 0 158670.69)
(308302.29 -92879.38 0 -458.87331 0 71040.789)
(640173.5 -75471.255 0 -1510.9476 0 147383.67)
(283996.67 -89804.953 0 -330.17637 0 65461.499)
(591036.19 -73112.811 0 -935.03603 0 136177.19)
(260656.89 -86867.908 0 -301.54743 0 60082.003)
(543603.31 -70831.125 0 -800.42269 0 125262.2)
(238172.68 -83961.541 0 -296.40626 0 54894.525)
(497833.47 -68550.362 0 -773.56137 0 114706.13)
(216514.71 -81065.207 0 -295.40678 0 49896.761)
(453707.32 -66268.045 0 -767.54756 0 104524.56)
(195674.12 -78176.13 0 -294.86115 0 45087.52)
(411215.54 -63987.794 0 -765.31446 0 94719.282)
(175646.24 -75294.216 0 -294.30137 0 40465.832)
(370351.65 -61711.55 0 -763.26518 0 85289.628)
(156427.62 -72420.275 0 -293.64475 0 36030.918)
(331109.19 -59440.21 0 -761.40973 0 76234.103)
(138014.52 -69554.733 0 -292.95151 0 31781.901)
(293481.62 -57174.425 0 -759.13812 0 67551.342)
(120403.32 -66698.487 0 -292.18455 0 27717.954)
(257461.57 -54914.655 0 -756.99504 0 59239.518)
(103589.84 -63851.932 0 -291.39171 0 23838.104)
(223041.49 -52661.401 0 -754.39979 0 51297.02)
(87569.961 -61015.955 0 -290.53461 0 20141.406)
(190212.89 -50415.066 0 -751.96049 0 43721.754)
(72339.015 -58190.885 0 -289.65408 0 16626.776)
(158967.17 -48176.109 0 -749.05821 0 36511.872)
(57892.347 -55377.575 0 -288.71592 0 13293.146)
(129294.82 -45944.901 0 -746.34452 0 29665.032)
(44224.844 -52576.278 0 -287.7555 0 10139.328)
(101186.23 -43721.853 0 -743.16413 0 23179.17)
(31331.377 -49787.795 0 -286.74353 0 7164.1463)
(74630.977 -41507.298 0 -740.2037 0 17051.717)
(19206.425 -47012.297 0 -285.70946 0 4366.319)
(49618.581 -39301.597 0 -736.7765 0 11280.416)
(7844.4448 -44250.527 0 -284.62908 0 1744.5728)
(26137.763 -37105.037 0 -733.59667 0 5862.5)
(-2760.4433 -41502.582 0 -283.52628 0 -702.45451)
(4177.3029 -34917.929 0 -729.95273 0 795.54236)
(-12614.149 -38769.163 0 -282.38209 0 -2976.1226)
(-16274.805 -32740.528 0 -726.57902 0 -3923.3962)
(-21722.874 -36050.313 0 -281.2085 0 -5077.8652)
(-35230.446 -30573.109 0 -722.74674 0 -8296.8906)
(-30092.86 -33346.731 0 -279.99575 0 -7009.1206)
(-52702.247 -28415.915 0 -719.17317 0 -12328.02)
(-37730.618 -30658.529 0 -278.76448 0 -8771.3959)
(-68702.709 -26269.251 0 -715.16504 0 -16019.509)
(-44642.657 -27986.586 0 -277.62665 0 -10366.219)
(-83245.035 -24133.516 0 -711.38033 0 -19374.557)
(-50835.642 -25331.308 0 -276.77567 0 -11795.173)
(-96342.481 -22009.287 0 -707.58253 0 -22396.168)
(-56315.941 -22692.836 0 -276.25365 0 -13059.737)
(-108008.84 -19896.905 0 -704.51943 0 -25087.699)
(-61089.318 -20069.262 0 -275.64172 0 -14161.145)
(-118257.45 -17795.926 0 -701.9651 0 -27452.173)
(-65159.314 -17457.166 0 -273.89572 0 -15099.972)
(-127100.56 -15704.984 0 -699.75364 0 -29492.38)
(-68523.638 -14852.652 0 -270.37194 0 -15875.541)
(-134547.83 -13624.081 0 -697.73909 0 -31210.515)
(-71162.018 -12251.051 0 -268.18969 0 -16483.894)
(-140605.28 -11560.188 0 -702.25856 0 -32609.431)
(-72991.53 -9623.1079 0 -291.05664 0 -16911.366)
(-145268.01 -9537.4586 0 -742.7889 0 -33694.8)
(-73697.644 -6793.1899 0 -471.32298 0 -17115.916)
(-148492.42 -7615.5011 0 -966.1077 0 -34490.429)
(-72088.556 -2886.3003 0 -1409.8877 0 -16961.179)
(-150101.53 -5893.8017 0 -2064.1379 0 -35115.154)
(-63970.561 5898.5564 0 -4820.3908 0 -15874.835)
(-149526 -4081.3012 0 -6956.5201 0 -36111.35)
(-36739.763 31857.6 0 -11654.191 0 -11167.836)
(-145764.6 1084.0287 0 -24143.596 0 -39209.584)
(22279.357 97646.674 0 39073.134 0 14158.267)
(-139635.13 39461.261 0 -64001.791 0 -46993.137)
(-184145.47 178793.18 0 96428.527 0 -20242.371)
(1160796.7 -39445.631 0 35960.034 0 276174.62)
(1075541.4 -42503.519 0 3047.9372 0 248905.22)
(997326.76 -43949.695 0 99.817614 0 230175.37)
(922479.46 -43424.314 0 -175.21815 0 212839.44)
(850165.75 -42323.928 0 -111.22765 0 196166.43)
(780306.96 -41090.702 0 -81.966267 0 180051.92)
(712899.49 -39832.425 0 -73.793424 0 164498.24)
(647942.01 -38570.615 0 -72.613601 0 149508.32)
(585428.84 -37308.994 0 -73.315421 0 135082.04)
(525352.23 -36048.423 0 -74.546664 0 121217.93)
(467702.81 -34788.975 0 -76.01838 0 107913.87)
(412470.41 -33530.932 0 -77.630185 0 95167.566)
(359643.79 -32274.25 0 -79.383645 0 82976.402)
(309211.02 -31019.198 0 -81.247362 0 71337.639)
(261159.18 -29765.709 0 -83.235777 0 60248.295)
(215474.77 -28514.055 0 -85.323831 0 49705.258)
(172143.38 -27264.151 0 -87.523543 0 39705.197)
(131150.03 -26016.265 0 -89.812341 0 30244.664)
(92478.954 -24770.296 0 -92.198444 0 21320.021)
(56113.903 -23526.504 0 -94.661446 0 12927.517)
(22037.934 -22284.77 0 -97.206258 0 5063.245)
(-9766.3339 -21045.351 0 -99.814661 0 -2276.8035)
(-39316.861 -19808.123 0 -102.49023 0 -9096.7733)
(-66631.991 -18573.332 0 -105.21174 0 -15400.893)
(-91730.579 -17340.886 0 -107.99395 0 -21193.517)
(-114631.86 -16111.042 0 -110.82293 0 -26479.08)
(-135355.66 -14883.998 0 -113.7982 0 -31262.182)
(-153922.42 -13660.263 0 -116.98968 0 -35547.557)
(-170353.09 -12439.908 0 -120.47473 0 -39340.053)
(-184668.09 -11222.222 0 -124.2421 0 -42644.385)
(-196886.6 -10005.808 0 -128.8531 0 -45465.104)
(-207027.8 -8791.6945 0 -137.95525 0 -47807.482)
(-215117.76 -7589.2071 0 -166.24178 0 -49680.924)
(-221206.93 -6438.0047 0 -266.36539 0 -51109.223)
(-225405.11 -5521.0471 0 -607.47911 0 -52156.751)
(-227922.37 -5709.4404 0 -1459.7305 0 -52934.331)
(-228678.31 -10796.713 0 -1988.7664 0 -53230.864)
(-224332.07 -33096.441 0 19681.284 0 -47227.105)
(-181703.41 -95464.57 0 157041.43 0 -5691.2262)
)
;

boundaryField
{
    left
    {
        type            calculated;
        value           nonuniform List<symmTensor> 4((-1282966.9 -61002.791 0 -123003.45 0 -324454.71) (-386037.09 -91924.451 0 -115811.13 0 -115811.13) (386007.69 -91922.38 0 115802.31 0 115802.31) (1282937.2 -60999.479 0 123000.71 0 324447.21));
    }
    right
    {
        type            calculated;
        value           nonuniform List<symmTensor> 4((-262.46395 2051.4965 0 -1576883.6 0 -363956.78) (-88.374848 3068.9281 0 -537751.15 0 -124116.81) (88.379877 3068.9051 0 537741.78 0 124114.65) (262.4623 2051.4711 0 1576886.7 0 363957.49));
    }
    top
    {
        type            calculated;
        value           nonuniform List<symmTensor> 
40
(
(1245635.1 -146.60941 0 80.970637 0 287472.94)
(1434207 -280.97135 0 102.33444 0 330994.45)
(1365719.7 -448.40216 0 105.16338 0 315190.36)
(1275087.9 -624.19738 0 105.14102 0 294275.32)
(1178500.8 -799.67735 0 104.13313 0 271985.75)
(1083910.5 -973.21381 0 102.7478 0 250156.89)
(992406.3 -1144.1785 0 101.07725 0 229040.16)
(904165.14 -1312.1112 0 99.139266 0 208676.37)
(819192.26 -1476.5715 0 96.94004 0 189066.74)
(737476.27 -1637.1273 0 94.485439 0 170208.64)
(659004.39 -1793.3559 0 91.782037 0 152099.12)
(583763.18 -1944.8462 0 88.83711 0 134735.08)
(511738.23 -2091.1997 0 85.658577 0 118113.21)
(442914.05 -2232.0319 0 82.254973 0 102229.92)
(377274.03 -2366.9728 0 78.635423 0 87081.385)
(314800.53 -2495.6682 0 74.809619 0 72663.54)
(255474.88 -2617.781 0 70.787794 0 58972.076)
(199277.43 -2732.9912 0 66.580692 0 46002.465)
(146187.66 -2840.9976 0 62.199534 0 33749.968)
(96184.161 -2941.518 0 57.655988 0 22209.65)
(49244.745 -3034.2902 0 52.962131 0 11376.394)
(5346.4873 -3119.0726 0 48.130418 0 1244.9118)
(-35534.218 -3195.6447 0 43.173652 0 -8190.241)
(-73421.596 -3263.8078 0 38.104945 0 -16934.652)
(-108340.44 -3323.3852 0 32.937694 0 -24994.04)
(-140316.05 -3374.2226 0 27.685537 0 -32374.238)
(-169374.31 -3416.1883 0 22.362415 0 -39081.219)
(-195542.22 -3449.1738 0 16.982821 0 -45121.209)
(-218848.15 -3473.0966 0 11.561968 0 -50500.751)
(-239320.93 -3487.9036 0 6.1152869 0 -55226.495)
(-256986.69 -3493.5715 0 0.65685817 0 -59304.468)
(-271865.39 -3490.0983 0 -4.8017888 0 -62739.276)
(-283970.13 -3477.494 0 -10.250028 0 -65533.933)
(-293314.32 -3455.7896 0 -15.674038 0 -67691.538)
(-300020.25 -3425.069 0 -21.070756 0 -69240.305)
(-305166.2 -3385.2929 0 -26.592574 0 -70429.106)
(-317702.58 -3334.474 0 -33.718409 0 -73323.762)
(-379147.31 -3252.9453 0 -49.406946 0 -87506.935)
(-789594.22 -3049.4842 0 -123.96015 0 -182242.66)
(-1600534.9 -2031.4964 0 -265.88773 0 -369415.57)
)
;
    }
    bottom
    {
        type            calculated;
        value           nonuniform List<symmTensor> 
40
(
(-1245657.2 -146.59342 0 -80.958688 0 -287478.04)
(-1434233.3 -280.96515 0 -102.32021 0 -331000.52)
(-1365747.9 -448.40052 0 -105.14816 0 -315196.86)
(-1275117.2 -624.19698 0 -105.1252 0 -294282.07)
(-1178530.6 -799.67727 0 -104.11705 0 -271992.62)
(-1083940.4 -973.21383 0 -102.73161 0 -250163.81)
(-992436.29 -1144.1786 0 -101.06106 0 -229047.08)
(-904195.02 -1312.1114 0 -99.123143 0 -208683.26)
(-819221.89 -1476.5719 0 -96.924058 0 -189073.57)
(-737505.52 -1637.1277 0 -94.469667 0 -170215.38)
(-659033.13 -1793.3565 0 -91.766545 0 -152105.75)
(-583791.3 -1944.8469 0 -88.821961 0 -134741.57)
(-511765.62 -2091.2007 0 -85.643834 0 -118119.52)
(-442940.59 -2232.0329 0 -82.240692 0 -102236.04)
(-377299.63 -2366.9739 0 -78.62166 0 -87087.29)
(-314825.1 -2495.6695 0 -74.796421 0 -72669.207)
(-255498.32 -2617.7824 0 -70.775209 0 -58977.484)
(-199299.69 -2732.9927 0 -66.568757 0 -46007.598)
(-146208.65 -2840.9991 0 -62.188288 0 -33754.809)
(-96203.836 -2941.5196 0 -57.645458 0 -22214.188)
(-49263.052 -3034.2919 0 -52.952343 0 -11380.616)
(-5363.4037 -3119.0743 0 -48.121386 0 -1248.8135)
(35518.699 -3195.6464 0 -43.165376 0 8186.6616)
(73407.446 -3263.8094 0 -38.09741 0 16931.388)
(108327.61 -3323.3867 0 -32.930872 0 24991.08)
(140304.48 -3374.224 0 -27.679396 0 32371.57)
(169363.95 -3416.19 0 -22.356922 0 39078.829)
(195532.74 -3449.1766 0 -16.977805 0 45119.023)
(218838.87 -3473.1003 0 -11.557056 0 50498.61)
(239310.96 -3487.9066 0 -6.110005 0 55224.196)
(256975.68 -3493.5706 0 -0.65101994 0 59301.931)
(271854.33 -3490.092 0 4.8076655 0 62736.724)
(283960.15 -3477.4865 0 10.255325 0 65531.633)
(293305.58 -3455.7881 0 15.678681 0 67689.522)
(300011.39 -3425.0762 0 21.075472 0 69238.26)
(305155.76 -3385.3039 0 26.598143 0 70426.698)
(317691.87 -3334.4795 0 33.724134 0 73321.291)
(379139.81 -3252.9436 0 49.410951 0 87505.206)
(789591.09 -3049.4835 0 123.96183 0 182241.93)
(1600532.9 -2031.5044 0 265.88882 0 369415.1)
)
;
    }
    frontAndBack
    {
        type            empty;
    }
}


// ************************************************************************* //
