/*--------------------------------*- C++ -*----------------------------------*\
| =========                 |                                                 |
| \\      /  F ield         | OpenFOAM: The Open Source CFD Toolbox           |
|  \\    /   O peration     | Version:  2512                                  |
|   \\  /    A nd           | Website:  www.openfoam.com                      |
|    \\/     M anipulation  |                                                 |
\*---------------------------------------------------------------------------*/
FoamFile
{
    version     2.0;
    format      ascii;
    arch        "LSB;label=32;scalar=64";
    class       volScalarField;
    location    "0.5";
    object      sigmaHyd;
}
// * * * * * * * * * * * * * * * * * * * * * * * * * * * * * * * * * * * * * //

dimensions      [1 -1 -2 0 0 0 0];

internalField   nonuniform List<scalar> 
160
(
-346621.5
-368222.32
-342646.46
-318977.95
-294701.95
-271054.81
-248182.37
-226122.88
-204879.22
-184449.38
-164830.4
-146018.97
-128011.49
-110804.1
-94392.658
-78772.75
-63939.716
-49888.654
-36614.434
-24111.714
-12374.951
-1398.4267
8823.7534
18297.631
27029.395
35025.359
42291.99
48835.95
54664.213
59783.926
64201.814
67923.618
70954.447
73304.316
75022.333
76355.552
78948.326
86677.62
145583.78
5992.6345
-160243.46
-124579.8
-114611.58
-106337.15
-98301.065
-90438.633
-82820.313
-75468.101
-68386.766
-61576.467
-55036.379
-48765.425
-42762.414
-37026.058
-31554.978
-26347.707
-21402.692
-16718.301
-12292.828
-8124.4925
-4211.4512
-551.79867
2856.4246
6015.2291
8926.6704
11592.844
14015.892
16198.008
18141.467
19848.613
21321.74
22563.119
23575.803
24369.546
24988.304
25622.873
26866.046
29707.232
21111.466
-85010.168
160231.57
124569.33
114601.46
106327.06
98290.938
90428.481
82810.172
75458.015
68376.779
61566.626
55026.726
48756.001
42753.254
37017.196
31546.444
26339.528
21394.893
16710.907
12285.859
8117.9679
4205.3865
546.20682
-2861.5397
-6019.8723
-8930.8656
-11596.645
-14019.413
-16201.469
-18145.159
-19852.728
-21326.14
-22567.264
-23579.256
-24372.457
-24991.394
-25626.663
-26870.067
-29710.673
-21114.018
85007.331
346612.66
368212.81
342636.78
318968.07
294691.96
271044.78
248172.34
226112.89
204869.32
184439.61
164820.81
146009.59
128002.36
110795.26
94384.138
78764.579
63931.921
49881.259
36607.461
24105.181
12368.876
1392.818
-8828.8922
-18302.308
-27033.632
-35029.191
-42295.479
-48839.258
-54667.599
-59787.617
-64205.763
-67927.369
-70957.662
-73307.141
-75025.417
-76359.399
-78952.334
-86680.567
-145585.3
-5992.5749
)
;

boundaryField
{
    left
    {
        type            zeroGradient;
    }
    right
    {
        type            zeroGradient;
    }
    top
    {
        type            zeroGradient;
    }
    bottom
    {
        type            zeroGradient;
    }
    frontAndBack
    {
        type            empty;
    }
}


// ************************************************************************* //
