/*--------------------------------*- C++ -*----------------------------------*\
| =========                 |                                                 |
| \\      /  F ield         | OpenFOAM: The Open Source CFD Toolbox           |
|  \\    /   O peration     | Version:  2512                                  |
|   \\  /    A nd           | Website:  www.openfoam.com                      |
|    \\/     M anipulation  |                                                 |
\*---------------------------------------------------------------------------*/
FoamFile
{
    version     2.0;
    format      ascii;
    arch        "LSB;label=32;scalar=64";
    class       volScalarField;
    location    "0.1";
    object      epsilonEq;
}
// * * * * * * * * * * * * * * * * * * * * * * * * * * * * * * * * * * * * * //

dimensions      [0 0 0 0 0 0 0];

internalField   nonuniform List<scalar> 
160
(
2.510028e-06
2.5672283e-06
2.3260919e-06
2.0624582e-06
1.8052007e-06
1.5633298e-06
1.3378507e-06
1.1287478e-06
9.3591394e-07
7.5940712e-07
5.9967867e-07
4.5808008e-07
3.3812837e-07
2.4849919e-07
2.0573377e-07
2.1844303e-07
2.6624961e-07
3.2553089e-07
3.8486869e-07
4.3979171e-07
4.8857144e-07
5.3057379e-07
5.6563351e-07
5.9379544e-07
6.1519752e-07
6.3001317e-07
6.3842234e-07
6.4059697e-07
6.3669361e-07
6.268422e-07
6.1112868e-07
5.8958133e-07
5.6217635e-07
5.2887814e-07
4.8967262e-07
4.4477389e-07
3.9701502e-07
3.6492925e-07
4.8249903e-07
1.1410886e-06
1.2004001e-06
1.1469509e-06
1.0468127e-06
9.5237233e-07
8.6729169e-07
7.8913846e-07
7.170824e-07
6.5089973e-07
5.9052588e-07
5.3591805e-07
4.8702196e-07
4.437579e-07
4.0600654e-07
3.7359136e-07
3.462596e-07
3.2366638e-07
3.0536815e-07
2.9083089e-07
2.7945395e-07
2.7060555e-07
2.6366145e-07
2.580386e-07
2.5321816e-07
2.4875702e-07
2.4428971e-07
2.3952432e-07
2.3423539e-07
2.2825604e-07
2.2146635e-07
2.1378224e-07
2.0515449e-07
1.9558491e-07
1.8514992e-07
1.7400342e-07
1.6233417e-07
1.5034592e-07
1.3906902e-07
1.3810341e-07
2.0748548e-07
4.107754e-07
1.1999547e-06
1.1464446e-06
1.0462939e-06
9.518576e-07
8.6678885e-07
7.8865261e-07
7.1661806e-07
6.5046123e-07
5.9011715e-07
5.3554246e-07
4.8668212e-07
4.4345538e-07
4.0574166e-07
3.7336296e-07
3.4606496e-07
3.2350126e-07
3.0522708e-07
2.9070758e-07
2.793419e-07
2.7049856e-07
2.635542e-07
2.5792688e-07
2.5309919e-07
2.4862949e-07
2.4415394e-07
2.3938214e-07
2.3408963e-07
2.2810892e-07
2.213188e-07
2.1363731e-07
2.0502373e-07
1.9549053e-07
1.8511261e-07
1.7402007e-07
1.6237685e-07
1.5038784e-07
1.3911409e-07
1.3818673e-07
2.0759412e-07
4.1079794e-07
2.5095001e-06
2.5666434e-06
2.32548e-06
2.0618364e-06
1.8045801e-06
1.5627167e-06
1.3372501e-06
1.1281636e-06
9.353502e-07
7.5886756e-07
5.9916752e-07
4.5760325e-07
3.3769877e-07
2.4815077e-07
2.0553205e-07
2.1840213e-07
2.6629643e-07
3.2560526e-07
3.8494101e-07
4.398484e-07
4.8860628e-07
5.305844e-07
5.6561968e-07
5.9375847e-07
6.1513981e-07
6.2993786e-07
6.3833304e-07
6.4049835e-07
6.3659205e-07
6.2674645e-07
6.1104798e-07
5.8952108e-07
5.6213895e-07
5.2886103e-07
4.8967205e-07
4.4478669e-07
3.9703195e-07
3.6493802e-07
4.8248948e-07
1.1411101e-06
)
;

boundaryField
{
    left
    {
        type            calculated;
        value           nonuniform List<scalar> 4(3.0420552e-06 9.9522659e-07 9.9481614e-07 3.0414587e-06);
    }
    right
    {
        type            calculated;
        value           nonuniform List<scalar> 4(1.3379024e-06 4.7643233e-07 4.7632482e-07 1.3379323e-06);
    }
    top
    {
        type            calculated;
        value           nonuniform List<scalar> 
40
(
3.1021412e-06
3.3740398e-06
3.0491255e-06
2.7037925e-06
2.3600926e-06
2.0355339e-06
1.7320507e-06
1.4496072e-06
1.1877284e-06
9.4588533e-07
7.2358964e-07
5.2054796e-07
3.3721364e-07
1.7799686e-07
8.6899823e-08
1.6295221e-07
2.761191e-07
3.824205e-07
4.7752553e-07
5.6095718e-07
6.3296393e-07
6.9398205e-07
7.4449028e-07
7.8495822e-07
8.1582432e-07
8.3748518e-07
8.502923e-07
8.545555e-07
8.5054692e-07
8.384929e-07
8.1854454e-07
7.9075187e-07
7.5508657e-07
7.115266e-07
6.6021404e-07
6.0212901e-07
5.4462719e-07
5.2149224e-07
7.8025553e-07
1.3666022e-06
)
;
    }
    bottom
    {
        type            calculated;
        value           nonuniform List<scalar> 
40
(
3.1026076e-06
3.3745915e-06
3.049711e-06
2.7043937e-06
2.3606939e-06
2.0361268e-06
1.7326294e-06
1.4501672e-06
1.1882652e-06
9.4639492e-07
7.2406799e-07
5.209909e-07
3.3761406e-07
1.7832786e-07
8.6911538e-08
1.6270492e-07
2.7587755e-07
3.8221069e-07
4.773519e-07
5.6082006e-07
6.3286252e-07
6.9391456e-07
7.4445443e-07
7.8495104e-07
8.1584245e-07
8.3752505e-07
8.503502e-07
8.5462495e-07
8.5061729e-07
8.3855136e-07
8.1858381e-07
7.9077914e-07
7.5511154e-07
7.1154919e-07
6.6021808e-07
6.0209771e-07
5.4457466e-07
5.2145603e-07
7.8024378e-07
1.3665846e-06
)
;
    }
    frontAndBack
    {
        type            empty;
    }
}


// ************************************************************************* //
