/*--------------------------------*- C++ -*----------------------------------*\
| =========                 |                                                 |
| \\      /  F ield         | OpenFOAM: The Open Source CFD Toolbox           |
|  \\    /   O peration     | Version:  2512                                  |
|   \\  /    A nd           | Website:  www.openfoam.com                      |
|    \\/     M anipulation  |                                                 |
\*---------------------------------------------------------------------------*/
FoamFile
{
    version     2.0;
    format      ascii;
    arch        "LSB;label=32;scalar=64";
    class       volSymmTensorField;
    location    "0.1";
    object      epsilon;
}
// * * * * * * * * * * * * * * * * * * * * * * * * * * * * * * * * * * * * * //

dimensions      [0 0 0 0 0 0 0];

internalField   nonuniform List<symmTensor> 
160
(
(-3.194194e-06 -1.8496658e-07 6.4623485e-23 9.3682223e-07 6.4623485e-23 0)
(-3.2589045e-06 -2.8943932e-07 -7.7548182e-22 9.4199054e-07 -1.5509636e-21 0)
(-2.9294686e-06 -2.7822923e-07 5.1698788e-22 8.8164787e-07 5.1698788e-22 0)
(-2.5914031e-06 -2.7317561e-07 5.1698788e-22 7.8047251e-07 6.2038546e-21 0)
(-2.2618343e-06 -2.6473022e-07 -5.1698788e-22 6.8154512e-07 -4.1359031e-21 0)
(-1.9515301e-06 -2.558483e-07 1.0339758e-21 5.8829138e-07 -4.1359031e-21 0)
(-1.6614328e-06 -2.468943e-07 -4.1359031e-21 5.0120356e-07 -2.0679515e-21 0)
(-1.3912979e-06 -2.3798827e-07 -2.0679515e-21 4.2013019e-07 -4.1359031e-21 0)
(-1.1406042e-06 -2.2915486e-07 2.0679515e-21 3.4489418e-07 -8.2718061e-21 0)
(-9.0876206e-07 -2.2040344e-07 -2.0679515e-21 2.7531326e-07 -4.1359031e-21 0)
(-6.9513815e-07 -2.1173939e-07 -1.0339758e-21 2.1119667e-07 -1.2407709e-20 0)
(-4.9906455e-07 -2.0316687e-07 -2.0679515e-21 1.5234415e-07 2.4815418e-20 0)
(-3.1984614e-07 -1.9468871e-07 0 9.8547506e-08 8.2718061e-21 0)
(-1.5676964e-07 -1.863069e-07 -7.2378304e-21 4.9593067e-08 2.4815418e-20 0)
(-9.1114947e-09 -1.7802216e-07 -2.0679515e-21 5.2641749e-09 1.6543612e-20 0)
(1.2385303e-07 -1.6983437e-07 1.0339758e-21 -3.4656284e-08 -2.4815418e-20 0)
(2.4284237e-07 -1.6174218e-07 -2.0679515e-21 -7.0383436e-08 -3.3087225e-20 0)
(3.4856025e-07 -1.537434e-07 1.0339758e-21 -1.0212813e-07 1.6543612e-20 0)
(4.416892e-07 -1.4583477e-07 1.0339758e-21 -1.3009476e-07 -2.4815418e-20 0)
(5.2288332e-07 -1.3801228e-07 -4.1359031e-21 -1.5447936e-07 -3.3087225e-20 0)
(5.9276312e-07 -1.3027111e-07 1.0339758e-21 -1.7546782e-07 -4.9630837e-20 0)
(6.5190998e-07 -1.2260588e-07 3.1019273e-21 -1.9323443e-07 1.6543612e-20 0)
(7.0086256e-07 -1.1501075e-07 -3.1019273e-21 -2.0794063e-07 0 0)
(7.4011316e-07 -1.0747964e-07 2.0679515e-21 -2.1973411e-07 -3.3087225e-20 0)
(7.7010589e-07 -1.0000649e-07 5.1698788e-21 -2.2874813e-07 -1.6543612e-20 0)
(7.9123517e-07 -9.2585408e-08 1.0339758e-21 -2.3510133e-07 0 0)
(8.0384661e-07 -8.5212061e-08 2.0679515e-21 -2.3889775e-07 -1.6543612e-20 0)
(8.0823973e-07 -7.7883448e-08 -2.0679515e-21 -2.4022786e-07 0 0)
(8.0467194e-07 -7.0597633e-08 1.0339758e-21 -2.3916806e-07 -1.6543612e-20 0)
(7.9335413e-07 -6.3342736e-08 -1.0339758e-21 -2.3577853e-07 -3.3087225e-20 0)
(7.7443169e-07 -5.6093417e-08 -5.1698788e-22 -2.300996e-07 1.1580529e-19 0)
(7.4796696e-07 -4.8818208e-08 1.0339758e-21 -2.2214842e-07 -6.6174449e-20 0)
(7.1394296e-07 -4.1510573e-08 2.0679515e-21 -2.1192198e-07 1.6543612e-20 0)
(6.7232539e-07 -3.4223989e-08 2.0679515e-21 -1.9939523e-07 -1.6543612e-20 0)
(6.2314301e-07 -2.7099394e-08 1.0339758e-21 -1.8448276e-07 -4.9630837e-20 0)
(5.6681205e-07 -2.0515685e-08 -1.0339758e-21 -1.6702043e-07 3.3087225e-20 0)
(5.0730463e-07 -1.6299342e-08 1.0339758e-21 -1.4738582e-07 -6.6174449e-20 0)
(4.6457945e-07 -1.911379e-08 1.5509636e-21 -1.3739728e-07 0 0)
(5.9653158e-07 -6.9036948e-08 0 -1.9430522e-07 -1.6543612e-20 0)
(9.9721676e-07 4.5227185e-08 1.5509636e-21 -9.7710146e-07 0 0)
(-1.2200889e-06 -7.1209093e-07 -1.2924697e-22 1.6743721e-07 4.8467614e-23 0)
(-1.1116496e-06 -6.4618761e-07 -9.6935228e-22 3.275595e-07 -1.4217167e-21 0)
(-9.8889691e-07 -6.0501963e-07 -7.7548182e-22 3.0179518e-07 5.1698788e-22 0)
(-8.7055696e-07 -5.7193413e-07 -3.8774091e-22 2.6547209e-07 3.1019273e-21 0)
(-7.5972139e-07 -5.434607e-07 -2.0679515e-21 2.3129184e-07 2.0679515e-21 0)
(-6.5602004e-07 -5.1630951e-07 -1.2924697e-21 1.9987789e-07 0 0)
(-5.5917509e-07 -4.8979244e-07 -1.5509636e-21 1.7071083e-07 8.2718061e-21 0)
(-4.6898345e-07 -4.6381069e-07 -3.3604212e-21 1.4358019e-07 -4.1359031e-21 0)
(-3.8525827e-07 -4.3839457e-07 -5.1698788e-22 1.1839256e-07 2.0679515e-20 0)
(-3.0780374e-07 -4.1358906e-07 -1.0339758e-21 9.5082587e-08 1.2407709e-20 0)
(-2.3641122e-07 -3.8943384e-07 -1.5509636e-21 7.358732e-08 8.2718061e-21 0)
(-1.7086046e-07 -3.6596031e-07 -1.0339758e-21 5.384145e-08 8.2718061e-21 0)
(-1.109223e-07 -3.4319125e-07 -2.0679515e-21 3.5777159e-08 0 0)
(-5.6361342e-08 -3.2114089e-07 -2.5849394e-21 1.9324814e-08 -4.1359031e-20 0)
(-6.93891e-09 -2.99815e-07 -5.1698788e-22 4.4137876e-09 8.2718061e-21 0)
(3.758434e-08 -2.7921109e-07 -1.0339758e-21 -9.0267534e-09 -8.2718061e-21 0)
(7.7445569e-08 -2.5931876e-07 -1.5509636e-21 -2.1067042e-08 -2.4815418e-20 0)
(1.1287739e-07 -2.4012015e-07 -2.0679515e-21 -3.1775997e-08 8.2718061e-21 0)
(1.4410532e-07 -2.2159052e-07 -5.1698788e-22 -4.12205e-08 -1.6543612e-20 0)
(1.7134582e-07 -2.0369898e-07 1.0339758e-21 -4.9464786e-08 4.9630837e-20 0)
(1.9480419e-07 -1.8640922e-07 -1.8094576e-21 -5.6569858e-08 -1.6543612e-20 0)
(2.1467306e-07 -1.6968046e-07 -2.8434334e-21 -6.2593018e-08 -1.6543612e-20 0)
(2.3113092e-07 -1.5346836e-07 -1.8094576e-21 -6.7587446e-08 9.9261674e-20 0)
(2.4434111e-07 -1.3772609e-07 -7.7548182e-22 -7.1601898e-08 -4.9630837e-20 0)
(2.5445104e-07 -1.2240542e-07 -2.0679515e-21 -7.4680483e-08 3.3087225e-20 0)
(2.6159194e-07 -1.0745829e-07 -2.3264455e-21 -7.6862814e-08 -1.6543612e-20 0)
(2.6587911e-07 -9.2838659e-08 5.1698788e-22 -7.8184033e-08 -1.6543612e-20 0)
(2.6741289e-07 -7.8503733e-08 -1.5509636e-21 -7.8675509e-08 0 0)
(2.6627823e-07 -6.4408187e-08 -5.1698788e-22 -7.8363135e-08 -3.3087225e-20 0)
(2.6254221e-07 -5.0490426e-08 -7.7548182e-22 -7.7264847e-08 4.9630837e-20 0)
(2.5624946e-07 -3.6665675e-08 -1.8094576e-21 -7.5389076e-08 -3.3087225e-20 0)
(2.4742148e-07 -2.2845583e-08 2.5849394e-22 -7.2736402e-08 0 0)
(2.3606165e-07 -8.9858532e-09 -1.0339758e-21 -6.9305882e-08 0 0)
(2.2216551e-07 4.8946432e-09 -5.1698788e-22 -6.5081011e-08 3.3087225e-20 0)
(2.0569408e-07 1.8826832e-08 -7.7548182e-22 -5.9931875e-08 -1.6543612e-20 0)
(1.8644947e-07 3.332887e-08 -9.0472879e-22 -5.3246318e-08 -3.3087225e-20 0)
(1.6367097e-07 5.1104892e-08 -5.1698788e-22 -4.3021089e-08 -3.3087225e-20 0)
(1.3554468e-07 8.2471688e-08 -1.0339758e-21 -2.5658037e-08 0 0)
(1.0138663e-07 1.6579721e-07 -1.0339758e-21 -3.108336e-08 4.9630837e-20 0)
(1.2731879e-07 2.689324e-07 -1.0339758e-21 -3.2431678e-07 4.9630837e-20 0)
(1.2193128e-06 -7.1203842e-07 -9.6935228e-23 -1.6733569e-07 -3.0696156e-22 0)
(1.1108273e-06 -6.4615962e-07 1.9387046e-22 -3.2732918e-07 -6.4623485e-22 0)
(9.8806741e-07 -6.0498196e-07 0 -3.0153334e-07 -1.0339758e-21 0)
(8.6973355e-07 -5.7188052e-07 1.2924697e-22 -2.6520799e-07 6.2038546e-21 0)
(7.589097e-07 -5.4339158e-07 5.1698788e-22 -2.3103299e-07 -1.0339758e-21 0)
(6.5522468e-07 -5.1622646e-07 0 -1.9962602e-07 -2.0679515e-21 0)
(5.584009e-07 -4.8969682e-07 0 -1.7046683e-07 0 0)
(4.6823567e-07 -4.6370353e-07 2.5849394e-22 -1.4334502e-07 -4.1359031e-21 0)
(3.8454203e-07 -4.382768e-07 -7.7548182e-22 -1.1816735e-07 -8.2718061e-21 0)
(3.0712403e-07 -4.1346151e-07 5.1698788e-22 -9.4868547e-08 0 0)
(2.3577246e-07 -3.8929741e-07 2.5849394e-22 -7.3385674e-08 -4.1359031e-21 0)
(1.702666e-07 -3.6581586e-07 5.1698788e-22 -5.3653398e-08 -5.7902643e-20 0)
(1.1037654e-07 -3.4303971e-07 5.1698788e-22 -3.5603813e-08 -8.2718061e-21 0)
(5.586627e-08 -3.2098315e-07 -2.5849394e-21 -1.9167131e-08 -2.4815418e-20 0)
(6.4962682e-09 -2.9965199e-07 -2.0679515e-21 -4.2725152e-09 4.1359031e-20 0)
(-3.7973413e-08 -2.7904371e-07 1.0339758e-21 9.1511012e-09 -8.2718061e-21 0)
(-7.7780773e-08 -2.591479e-07 -2.0679515e-21 2.1174209e-08 -2.4815418e-20 0)
(-1.1315898e-07 -2.3994666e-07 -1.0339758e-21 3.1865972e-08 -3.3087225e-20 0)
(-1.4433431e-07 -2.2141526e-07 -1.5509636e-21 4.129352e-08 -8.2718061e-21 0)
(-1.7152372e-07 -2.0352271e-07 0 4.9521318e-08 3.3087225e-20 0)
(-1.9493316e-07 -1.862327e-07 -2.5849394e-22 5.6610596e-08 0 0)
(-2.1475578e-07 -1.6950437e-07 0 6.2618871e-08 -1.6543612e-20 0)
(-2.3117075e-07 -1.5329334e-07 2.5849394e-22 6.7599548e-08 1.6543612e-20 0)
(-2.4434215e-07 -1.3755267e-07 -2.5849394e-22 7.1601682e-08 -9.9261674e-20 0)
(-2.5441835e-07 -1.2223405e-07 2.5849394e-22 7.4669681e-08 3.3087225e-20 0)
(-2.615316e-07 -1.0728932e-07 5.1698788e-22 7.6843187e-08 0 0)
(-2.6579794e-07 -9.267272e-08 -3.1019273e-21 7.8156213e-08 4.9630837e-20 0)
(-2.6731742e-07 -7.8342172e-08 -1.5509636e-21 7.8636702e-08 1.6543612e-20 0)
(-2.6617456e-07 -6.4251915e-08 -7.7548182e-22 7.8307918e-08 0 0)
(-2.6243749e-07 -5.0339192e-08 0 7.7191531e-08 -4.9630837e-20 0)
(-2.5615477e-07 -3.6516521e-08 2.5849394e-22 7.5309741e-08 -4.9630837e-20 0)
(-2.4735116e-07 -2.2695739e-08 -5.1698788e-22 7.2678678e-08 -8.2718061e-20 0)
(-2.3602775e-07 -8.8376788e-09 -2.5849394e-22 6.9293058e-08 -1.6543612e-20 0)
(-2.2216576e-07 5.0348008e-09 5.1698788e-22 6.5105795e-08 -1.4889251e-19 0)
(-2.0571232e-07 1.8955418e-08 5.1698788e-22 5.995646e-08 3.3087225e-20 0)
(-1.864671e-07 3.3448568e-08 -1.2924697e-22 5.3235653e-08 3.3087225e-20 0)
(-1.6367906e-07 5.1221989e-08 2.5849394e-22 4.2978104e-08 0 0)
(-1.3555499e-07 8.2586483e-08 0 2.5614635e-08 -6.6174449e-20 0)
(-1.0140582e-07 1.659002e-07 6.4623485e-22 3.1049674e-08 -8.2718061e-20 0)
(-1.2731538e-07 2.690005e-07 -1.2924697e-22 3.2423137e-07 -1.6543612e-20 0)
(3.1935112e-06 -1.84939e-07 2.5849394e-22 -9.3663861e-07 -4.523644e-22 0)
(3.2581535e-06 -2.8941657e-07 1.5509636e-21 -9.4177372e-07 2.5849394e-22 0)
(2.928692e-06 -2.7819475e-07 2.0679515e-21 -8.8141072e-07 2.5849394e-21 0)
(2.5906179e-06 -2.7312286e-07 2.5849394e-21 -7.8023125e-07 4.1359031e-21 0)
(2.2610537e-06 -2.6466121e-07 4.1359031e-21 -6.8130547e-07 5.1698788e-21 0)
(1.9507621e-06 -2.5576518e-07 0 -5.8805612e-07 0 0)
(1.6606838e-06 -2.4679857e-07 1.0339758e-21 -5.009745e-07 2.0679515e-21 0)
(1.3905735e-06 -2.3788099e-07 1.0339758e-21 -4.1990889e-07 -8.2718061e-21 0)
(1.1399096e-06 -2.2903697e-07 2.0679515e-21 -3.446821e-07 4.1359031e-21 0)
(9.0810223e-07 -2.2027575e-07 3.1019273e-21 -2.7511174e-07 8.2718061e-21 0)
(6.9451753e-07 -2.1160283e-07 6.2038546e-21 -2.1100697e-07 0 0)
(4.9848686e-07 -2.0302228e-07 4.1359031e-21 -1.5216739e-07 -8.2718061e-21 0)
(3.1931464e-07 -1.9453705e-07 8.2718061e-21 -9.8384672e-08 8.2718061e-21 0)
(1.5628671e-07 -1.8614902e-07 8.2718061e-21 -4.9444961e-08 8.2718061e-21 0)
(8.6790176e-09 -1.7785904e-07 6.2038546e-21 -5.1314076e-09 1.6543612e-20 0)
(-1.2423407e-07 -1.6966686e-07 7.2378304e-21 3.4773312e-08 3.3087225e-20 0)
(-2.4317146e-07 -1.6157121e-07 0 7.0484542e-08 -1.6543612e-20 0)
(-3.4883774e-07 -1.5356981e-07 2.0679515e-21 1.0221334e-07 0 0)
(-4.4191587e-07 -1.4565941e-07 4.1359031e-21 1.3016432e-07 -7.4446255e-20 0)
(-5.230607e-07 -1.3783593e-07 5.1698788e-21 1.545337e-07 0 0)
(-5.9289317e-07 -1.3009452e-07 1.0339758e-21 1.7550757e-07 0 0)
(-6.5199538e-07 -1.2242973e-07 2.0679515e-21 1.932604e-07 4.9630837e-20 0)
(-7.009065e-07 -1.1483571e-07 0 2.0795385e-07 3.3087225e-20 0)
(-7.401196e-07 -1.073062e-07 3.1019273e-21 2.1973583e-07 -4.9630837e-20 0)
(-7.7007947e-07 -9.9835076e-08 7.2378304e-21 2.2873978e-07 1.6543612e-20 0)
(-7.9118111e-07 -9.2416245e-08 8.2718061e-21 2.350844e-07 0 0)
(-8.0377063e-07 -8.5045743e-08 1.0339758e-21 2.3887333e-07 -3.3087225e-20 0)
(-8.0814936e-07 -7.7721948e-08 4.1359031e-21 2.4019596e-07 -4.9630837e-20 0)
(-8.0457752e-07 -7.0442166e-08 0 2.3912858e-07 -4.9630837e-20 0)
(-7.9326791e-07 -6.3193186e-08 2.0679515e-21 2.3573411e-07 -4.9630837e-20 0)
(-7.7436358e-07 -5.5945056e-08 2.5849394e-21 2.3005837e-07 -3.3087225e-20 0)
(-7.4791799e-07 -4.866644e-08 4.1359031e-21 2.2212214e-07 -4.9630837e-20 0)
(-7.1391165e-07 -4.1359014e-08 5.1698788e-21 2.1191706e-07 -4.9630837e-20 0)
(-6.7231075e-07 -3.4082434e-08 -3.1019273e-21 1.9940539e-07 -6.6174449e-20 0)
(-6.2314964e-07 -2.6973281e-08 2.5849394e-21 1.8449255e-07 3.3087225e-20 0)
(-5.6684429e-07 -2.0400401e-08 1.0339758e-21 1.6701802e-07 3.3087225e-20 0)
(-5.0734874e-07 -1.6182879e-08 5.1698788e-22 1.4737379e-07 1.1580529e-19 0)
(-4.6461281e-07 -1.8994865e-08 -1.0339758e-21 1.3738705e-07 -3.3087225e-20 0)
(-5.9655173e-07 -6.8930918e-08 2.0679515e-21 1.9430035e-07 -3.3087225e-20 0)
(-9.9723129e-07 4.528764e-08 2.5849394e-21 9.771188e-07 0 0)
)
;

boundaryField
{
    left
    {
        type            calculated;
        value           nonuniform List<symmTensor> 4((-3.9777745e-06 -4.0122133e-07 0 9.2174351e-07 0 0) (-1.0889902e-06 -5.8953972e-07 0 0 0 0) (1.0882646e-06 -5.8946678e-07 0 0 0 0) (3.9769957e-06 -4.0110454e-07 0 -9.2157681e-07 0 0));
    }
    right
    {
        type            calculated;
        value           nonuniform List<symmTensor> 4((5.0759397e-07 3.7498421e-08 0 -1.7032427e-06 0 0) (1.7918603e-07 5.6379242e-08 0 -6.011355e-07 0 0) (-1.791446e-07 5.6379456e-08 0 6.0099738e-07 0 0) (-5.0760535e-07 3.7498663e-08 0 1.7032807e-06 0 0));
    }
    top
    {
        type            calculated;
        value           nonuniform List<symmTensor> 
40
(
(3.9480069e-06 -5.5108688e-09 0 -1.182295e-06 0 0)
(4.2942304e-06 -1.055586e-08 0 -1.2856212e-06 0 0)
(3.8808241e-06 -1.6787542e-08 0 -1.1615522e-06 0 0)
(3.4413482e-06 -2.324899e-08 0 -1.0297497e-06 0 0)
(3.0038747e-06 -2.9584419e-08 0 -8.9858566e-07 0 0)
(2.5906704e-06 -3.5704139e-08 0 -7.7472314e-07 0 0)
(2.2041725e-06 -4.1559182e-08 0 -6.5888946e-07 0 0)
(1.844296e-06 -4.7110536e-08 0 -5.5105716e-07 0 0)
(1.5103718e-06 -5.2323986e-08 0 -4.5102363e-07 0 0)
(1.2016117e-06 -5.7170035e-08 0 -3.5855045e-07 0 0)
(9.1716638e-07 -6.1624208e-08 0 -2.7338074e-07 0 0)
(6.5613967e-07 -6.5667276e-08 0 -1.9524352e-07 0 0)
(4.1759987e-07 -6.9285363e-08 0 -1.2385711e-07 0 0)
(2.0059039e-07 -7.2469946e-08 0 -5.8932389e-08 0 0)
(4.1416931e-09 -7.5217768e-08 0 -1.7638177e-10 0 0)
(-1.7271783e-07 -7.7530659e-08 0 5.2704405e-08 0 0)
(-3.3095051e-07 -7.9415281e-08 0 1.0000057e-07 0 0)
(-4.7149939e-07 -8.0882799e-08 0 1.419968e-07 0 0)
(-5.9527824e-07 -8.1948503e-08 0 1.7896881e-07 0 0)
(-7.0316313e-07 -8.2631368e-08 0 2.1118085e-07 0 0)
(-7.9598435e-07 -8.2953587e-08 0 2.3888324e-07 0 0)
(-8.7452003e-07 -8.294007e-08 0 2.6231043e-07 0 0)
(-9.3949055e-07 -8.2617936e-08 0 2.8167935e-07 0 0)
(-9.9155427e-07 -8.2015989e-08 0 2.9718812e-07 0 0)
(-1.0313045e-06 -8.1164207e-08 0 3.0901513e-07 0 0)
(-1.0592674e-06 -8.0093231e-08 0 3.173184e-07 0 0)
(-1.0759033e-06 -7.8833888e-08 0 3.2223606e-07 0 0)
(-1.0816145e-06 -7.7416719e-08 0 3.238886e-07 0 0)
(-1.0767518e-06 -7.5871519e-08 0 3.2238089e-07 0 0)
(-1.0616051e-06 -7.4226916e-08 0 3.1779939e-07 0 0)
(-1.0363661e-06 -7.2510026e-08 0 3.1020094e-07 0 0)
(-1.001095e-06 -7.0746253e-08 0 2.9960288e-07 0 0)
(-9.5574936e-07 -6.8959182e-08 0 2.8599157e-07 0 0)
(-9.0029052e-07 -6.7170456e-08 0 2.6935446e-07 0 0)
(-8.3488374e-07 -6.5399521e-08 0 2.4973979e-07 0 0)
(-7.6075988e-07 -6.3659484e-08 0 2.2751334e-07 0 0)
(-6.8733709e-07 -6.1923713e-08 0 2.0548026e-07 0 0)
(-6.5811587e-07 -5.9840285e-08 0 1.966006e-07 0 0)
(-9.9029839e-07 -5.5751704e-08 0 2.9539121e-07 0 0)
(-1.7398251e-06 -3.7014316e-08 0 5.1852181e-07 0 0)
)
;
    }
    bottom
    {
        type            calculated;
        value           nonuniform List<symmTensor> 
40
(
(-3.9485999e-06 -5.509456e-09 0 1.1824736e-06 0 0)
(-4.2949319e-06 -1.0555387e-08 0 1.2858325e-06 0 0)
(-3.8815685e-06 -1.6787519e-08 0 1.1617764e-06 0 0)
(-3.4421127e-06 -2.3249108e-08 0 1.02998e-06 0 0)
(-3.0046392e-06 -2.9584586e-08 0 8.9881591e-07 0 0)
(-2.5914244e-06 -3.5704334e-08 0 7.7495017e-07 0 0)
(-2.2049086e-06 -4.1559399e-08 0 6.5911107e-07 0 0)
(-1.8450085e-06 -4.7110774e-08 0 5.5127162e-07 0 0)
(-1.5110552e-06 -5.2324243e-08 0 4.5122929e-07 0 0)
(-1.2022613e-06 -5.717031e-08 0 3.5874588e-07 0 0)
(-9.1777762e-07 -6.1624496e-08 0 2.7356457e-07 0 0)
(-6.5670902e-07 -6.5667575e-08 0 1.9541469e-07 0 0)
(-4.1812401e-07 -6.9285668e-08 0 1.2401462e-07 0 0)
(-2.0106709e-07 -7.2470253e-08 0 5.9075564e-08 0 0)
(-4.5689751e-09 -7.5218071e-08 0 3.0463413e-10 0 0)
(1.7234086e-07 -7.7530953e-08 0 -5.2591343e-08 0 0)
(3.3062447e-07 -7.941556e-08 0 -9.9902882e-08 0 0)
(4.7122388e-07 -8.0883061e-08 0 -1.4191436e-07 0 0)
(5.9505262e-07 -8.1948742e-08 0 -1.7890142e-07 0 0)
(7.0298583e-07 -8.2631582e-08 0 -2.1112803e-07 0 0)
(7.9585353e-07 -8.2953772e-08 0 -2.3884443e-07 0 0)
(8.7443302e-07 -8.2940225e-08 0 -2.6228481e-07 0 0)
(9.3944422e-07 -8.261806e-08 0 -2.8166599e-07 0 0)
(9.9154472e-07 -8.2016082e-08 0 -2.9718582e-07 0 0)
(1.0313274e-06 -8.1164268e-08 0 -3.0902259e-07 0 0)
(1.0593181e-06 -8.009326e-08 0 -3.1733422e-07 0 0)
(1.0759771e-06 -7.8833883e-08 0 -3.222588e-07 0 0)
(1.081703e-06 -7.7416674e-08 0 -3.2391577e-07 0 0)
(1.0768415e-06 -7.587144e-08 0 -3.224084e-07 0 0)
(1.0616796e-06 -7.4226825e-08 0 -3.1782232e-07 0 0)
(1.036416e-06 -7.250995e-08 0 -3.1021648e-07 0 0)
(1.0011296e-06 -7.0746192e-08 0 -2.9961378e-07 0 0)
(9.5578105e-07 -6.8959073e-08 0 -2.8600156e-07 0 0)
(9.0031923e-07 -6.7170228e-08 0 -2.6936349e-07 0 0)
(8.3488877e-07 -6.5399172e-08 0 -2.4974165e-07 0 0)
(7.6071964e-07 -6.3659096e-08 0 -2.2750158e-07 0 0)
(6.8726959e-07 -6.1923419e-08 0 -2.0546025e-07 0 0)
(6.5806932e-07 -5.9840151e-08 0 -1.9658681e-07 0 0)
(9.9028334e-07 -5.575168e-08 0 -2.9538678e-07 0 0)
(1.7398026e-06 -3.7014243e-08 0 -5.1851509e-07 0 0)
)
;
    }
    frontAndBack
    {
        type            empty;
    }
}


// ************************************************************************* //
