/*--------------------------------*- C++ -*----------------------------------*\
| =========                 |                                                 |
| \\      /  F ield         | OpenFOAM: The Open Source CFD Toolbox           |
|  \\    /   O peration     | Version:  2512                                  |
|   \\  /    A nd           | Website:  www.openfoam.com                      |
|    \\/     M anipulation  |                                                 |
\*---------------------------------------------------------------------------*/
FoamFile
{
    version     2.0;
    format      ascii;
    arch        "LSB;label=32;scalar=64";
    class       pointVectorField;
    location    "0.1";
    object      pointD;
}
// * * * * * * * * * * * * * * * * * * * * * * * * * * * * * * * * * * * * * //

dimensions      [0 1 0 0 0 0 0];

internalField   nonuniform List<vector> 
410
(
(-4.2551445e-08 -2.3043588e-08 0)
(-1.4126644e-07 -9.4080478e-08 0)
(-2.4863974e-07 -2.1447711e-07 0)
(-3.4567895e-07 -3.8300337e-07 0)
(-4.3173177e-07 -5.9633942e-07 0)
(-5.0684775e-07 -8.4915503e-07 0)
(-5.7163336e-07 -1.1361719e-06 0)
(-6.2675608e-07 -1.4524016e-06 0)
(-6.7288129e-07 -1.7931897e-06 0)
(-7.1065767e-07 -2.1542121e-06 0)
(-7.407142e-07 -2.5314652e-06 0)
(-7.6365864e-07 -2.9212556e-06 0)
(-7.8007637e-07 -3.320189e-06 0)
(-7.9052947e-07 -3.7251585e-06 0)
(-7.9555615e-07 -4.1333324e-06 0)
(-7.9567037e-07 -4.5421424e-06 0)
(-7.9136185e-07 -4.949271e-06 0)
(-7.8309624e-07 -5.3526393e-06 0)
(-7.7131564e-07 -5.7503951e-06 0)
(-7.5643933e-07 -6.1409007e-06 0)
(-7.3886468e-07 -6.5227221e-06 0)
(-7.1896834e-07 -6.8946179e-06 0)
(-6.9710752e-07 -7.2555294e-06 0)
(-6.7362141e-07 -7.6045708e-06 0)
(-6.4883279e-07 -7.9410208e-06 0)
(-6.2304961e-07 -8.2643148e-06 0)
(-5.9656666e-07 -8.5740377e-06 0)
(-5.6966723e-07 -8.8699179e-06 0)
(-5.4262465e-07 -9.1518222e-06 0)
(-5.1570362e-07 -9.4197508e-06 0)
(-4.8916163e-07 -9.6738331e-06 0)
(-4.6325123e-07 -9.9143237e-06 0)
(-4.3822299e-07 -1.01416e-05 0)
(-4.1432846e-07 -1.0356165e-05 0)
(-3.9182048e-07 -1.0558648e-05 0)
(-3.7094826e-07 -1.0749812e-05 0)
(-3.5193027e-07 -1.0930539e-05 0)
(-3.3474853e-07 -1.110173e-05 0)
(-3.182968e-07 -1.1263462e-05 0)
(-2.9353971e-07 -1.14116e-05 0)
(-2.5004465e-07 -1.1508879e-05 0)
(0 0 0)
(-6.0994701e-08 -7.0282955e-08 0)
(-1.1656663e-07 -1.9117511e-07 0)
(-1.6600085e-07 -3.6222298e-07 0)
(-2.0951819e-07 -5.7809618e-07 0)
(-2.4749392e-07 -8.3332101e-07 0)
(-2.8028481e-07 -1.1225913e-06 0)
(-3.0823374e-07 -1.440922e-06 0)
(-3.3167342e-07 -1.7836629e-06 0)
(-3.5092725e-07 -2.1464943e-06 0)
(-3.6630882e-07 -2.5254173e-06 0)
(-3.7812129e-07 -2.9167436e-06 0)
(-3.8665679e-07 -3.3170838e-06 0)
(-3.92196e-07 -3.7233363e-06 0)
(-3.950078e-07 -4.1326749e-06 0)
(-3.9534915e-07 -4.5425366e-06 0)
(-3.9346502e-07 -4.9506095e-06 0)
(-3.8958852e-07 -5.35482e-06 0)
(-3.839411e-07 -5.7533208e-06 0)
(-3.7673296e-07 -6.1444796e-06 0)
(-3.6816344e-07 -6.5268671e-06 0)
(-3.5842162e-07 -6.8992463e-06 0)
(-3.4768694e-07 -7.2605627e-06 0)
(-3.3612992e-07 -7.6099345e-06 0)
(-3.2391288e-07 -7.9466438e-06 0)
(-3.1119077e-07 -8.2701292e-06 0)
(-2.9811197e-07 -8.5799784e-06 0)
(-2.8481906e-07 -8.8759222e-06 0)
(-2.7144965e-07 -9.1578294e-06 0)
(-2.5813709e-07 -9.4257021e-06 0)
(-2.4501137e-07 -9.6796708e-06 0)
(-2.3220019e-07 -9.9199909e-06 0)
(-2.1983008e-07 -1.014704e-05 0)
(-2.0802746e-07 -1.0361321e-05 0)
(-1.9691917e-07 -1.0563462e-05 0)
(-1.8663424e-07 -1.0754223e-05 0)
(-1.7731163e-07 -1.093448e-05 0)
(-1.6912814e-07 -1.1105159e-05 0)
(-1.623509e-07 -1.1266904e-05 0)
(-1.572814e-07 -1.1417874e-05 0)
(-1.5091563e-07 -1.155146e-05 0)
(0 0 0)
(-9.7454815e-12 -6.1911094e-08 0)
(-2.0295646e-11 -1.8316899e-07 0)
(-3.0923123e-11 -3.5513934e-07 0)
(-4.143325e-11 -5.7190622e-07 0)
(-5.1766193e-11 -8.2794638e-07 0)
(-6.1874755e-11 -1.1179721e-06 0)
(-7.1705525e-11 -1.4370057e-06 0)
(-8.1194294e-11 -1.7804001e-06 0)
(-9.027876e-11 -2.1438374e-06 0)
(-9.8895337e-11 -2.5233201e-06 0)
(-1.069897e-10 -2.9151615e-06 0)
(-1.1451058e-10 -3.3159739e-06 0)
(-1.2141906e-10 -3.7226574e-06 0)
(-1.2768121e-10 -4.1323876e-06 0)
(-1.3327636e-10 -4.5426033e-06 0)
(-1.3818932e-10 -4.9509942e-06 0)
(-1.4241765e-10 -5.3554886e-06 0)
(-1.45964e-10 -5.754241e-06 0)
(-1.488424e-10 -6.1456205e-06 0)
(-1.5107144e-10 -6.5281994e-06 0)
(-1.5267962e-10 -6.9007424e-06 0)
(-1.5370034e-10 -7.2621962e-06 0)
(-1.5417687e-10 -7.6116803e-06 0)
(-1.5416105e-10 -7.948478e-06 0)
(-1.5371828e-10 -8.272029e-06 0)
(-1.5292765e-10 -8.5819217e-06 0)
(-1.5187639e-10 -8.877888e-06 0)
(-1.5064246e-10 -9.1597973e-06 0)
(-1.4929014e-10 -9.4276523e-06 0)
(-1.4789718e-10 -9.6815839e-06 0)
(-1.4660903e-10 -9.9218474e-06 0)
(-1.4564322e-10 -1.0148821e-05 0)
(-1.4518225e-10 -1.0363006e-05 0)
(-1.4519564e-10 -1.0565031e-05 0)
(-1.4542328e-10 -1.075565e-05 0)
(-1.4556082e-10 -1.0935715e-05 0)
(-1.4550419e-10 -1.1106075e-05 0)
(-1.4551014e-10 -1.126727e-05 0)
(-1.4567435e-10 -1.1419061e-05 0)
(-1.4550669e-10 -1.1566488e-05 0)
(0 0 0)
(6.0975385e-08 -7.0277879e-08 0)
(1.165273e-07 -1.9116867e-07 0)
(1.659413e-07 -3.6221633e-07 0)
(2.0943848e-07 -5.7808963e-07 0)
(2.473943e-07 -8.3331462e-07 0)
(2.8016564e-07 -1.1225851e-06 0)
(3.0809552e-07 -1.440916e-06 0)
(3.3151679e-07 -1.7836571e-06 0)
(3.5075298e-07 -2.1464888e-06 0)
(3.661178e-07 -2.5254121e-06 0)
(3.7791451e-07 -2.9167387e-06 0)
(3.8643536e-07 -3.3170793e-06 0)
(3.919611e-07 -3.7233321e-06 0)
(3.9476068e-07 -4.1326711e-06 0)
(3.9509108e-07 -4.5425333e-06 0)
(3.9319733e-07 -4.9506066e-06 0)
(3.8931252e-07 -5.3548175e-06 0)
(3.8365811e-07 -5.7533188e-06 0)
(3.7644428e-07 -6.144478e-06 0)
(3.6787032e-07 -6.5268658e-06 0)
(3.5812527e-07 -6.8992455e-06 0)
(3.473885e-07 -7.2605622e-06 0)
(3.3583044e-07 -7.6099343e-06 0)
(3.2361332e-07 -7.9466439e-06 0)
(3.1089196e-07 -8.2701296e-06 0)
(2.9781459e-07 -8.5799789e-06 0)
(2.8452364e-07 -8.875923e-06 0)
(2.7115653e-07 -9.1578305e-06 0)
(2.5784645e-07 -9.4257037e-06 0)
(2.4472319e-07 -9.6796729e-06 0)
(2.3191416e-07 -9.9199929e-06 0)
(2.1954563e-07 -1.0147041e-05 0)
(2.0774379e-07 -1.036132e-05 0)
(1.9663551e-07 -1.0563461e-05 0)
(1.8635012e-07 -1.0754223e-05 0)
(1.7702691e-07 -1.0934481e-05 0)
(1.688429e-07 -1.110516e-05 0)
(1.6206515e-07 -1.1266905e-05 0)
(1.5699503e-07 -1.1417875e-05 0)
(1.5062909e-07 -1.1551463e-05 0)
(4.254508e-08 -2.303942e-08 0)
(1.4124525e-07 -9.4070389e-08 0)
(2.4860101e-07 -2.1446484e-07 0)
(3.4562162e-07 -3.8299069e-07 0)
(4.3165532e-07 -5.9632683e-07 0)
(5.0675219e-07 -8.4914269e-07 0)
(5.7151895e-07 -1.1361599e-06 0)
(6.2662326e-07 -1.45239e-06 0)
(6.7273066e-07 -1.7931785e-06 0)
(7.1048996e-07 -2.1542014e-06 0)
(7.4053025e-07 -2.5314551e-06 0)
(7.6345941e-07 -2.9212461e-06 0)
(7.798629e-07 -3.3201802e-06 0)
(7.903029e-07 -3.7251504e-06 0)
(7.9531766e-07 -4.1333251e-06 0)
(7.954212e-07 -4.5421359e-06 0)
(7.9110326e-07 -4.9492654e-06 0)
(7.8282949e-07 -5.3526345e-06 0)
(7.7104201e-07 -5.7503911e-06 0)
(7.5616005e-07 -6.1408975e-06 0)
(7.3858098e-07 -6.5227197e-06 0)
(7.1868137e-07 -6.8946163e-06 0)
(6.9681837e-07 -7.2555284e-06 0)
(6.733311e-07 -7.6045704e-06 0)
(6.4854225e-07 -7.941021e-06 0)
(6.2275963e-07 -8.2643155e-06 0)
(5.9627795e-07 -8.5740388e-06 0)
(5.6938036e-07 -8.8699194e-06 0)
(5.4234e-07 -9.1518243e-06 0)
(5.154212e-07 -9.4197535e-06 0)
(4.8888108e-07 -9.6738363e-06 0)
(4.6297192e-07 -9.9143265e-06 0)
(4.3794455e-07 -1.0141601e-05 0)
(4.1405081e-07 -1.0356164e-05 0)
(3.9154355e-07 -1.0558647e-05 0)
(3.7067146e-07 -1.0749812e-05 0)
(3.5165246e-07 -1.0930541e-05 0)
(3.3446903e-07 -1.1101732e-05 0)
(3.1801614e-07 -1.1263463e-05 0)
(2.9325868e-07 -1.1411601e-05 0)
(2.4976305e-07 -1.1508881e-05 0)
(-4.2551445e-08 -2.3043588e-08 0)
(-1.4126644e-07 -9.4080478e-08 0)
(-2.4863974e-07 -2.1447711e-07 0)
(-3.4567895e-07 -3.8300337e-07 0)
(-4.3173177e-07 -5.9633942e-07 0)
(-5.0684775e-07 -8.4915503e-07 0)
(-5.7163336e-07 -1.1361719e-06 0)
(-6.2675608e-07 -1.4524016e-06 0)
(-6.7288129e-07 -1.7931897e-06 0)
(-7.1065767e-07 -2.1542121e-06 0)
(-7.407142e-07 -2.5314652e-06 0)
(-7.6365864e-07 -2.9212556e-06 0)
(-7.8007637e-07 -3.320189e-06 0)
(-7.9052947e-07 -3.7251585e-06 0)
(-7.9555615e-07 -4.1333324e-06 0)
(-7.9567037e-07 -4.5421424e-06 0)
(-7.9136185e-07 -4.949271e-06 0)
(-7.8309624e-07 -5.3526393e-06 0)
(-7.7131564e-07 -5.7503951e-06 0)
(-7.5643933e-07 -6.1409007e-06 0)
(-7.3886468e-07 -6.5227221e-06 0)
(-7.1896834e-07 -6.8946179e-06 0)
(-6.9710752e-07 -7.2555294e-06 0)
(-6.7362141e-07 -7.6045708e-06 0)
(-6.4883279e-07 -7.9410208e-06 0)
(-6.2304961e-07 -8.2643148e-06 0)
(-5.9656666e-07 -8.5740377e-06 0)
(-5.6966723e-07 -8.8699179e-06 0)
(-5.4262465e-07 -9.1518222e-06 0)
(-5.1570362e-07 -9.4197508e-06 0)
(-4.8916163e-07 -9.6738331e-06 0)
(-4.6325123e-07 -9.9143237e-06 0)
(-4.3822299e-07 -1.01416e-05 0)
(-4.1432846e-07 -1.0356165e-05 0)
(-3.9182048e-07 -1.0558648e-05 0)
(-3.7094826e-07 -1.0749812e-05 0)
(-3.5193027e-07 -1.0930539e-05 0)
(-3.3474853e-07 -1.110173e-05 0)
(-3.182968e-07 -1.1263462e-05 0)
(-2.9353971e-07 -1.14116e-05 0)
(-2.5004465e-07 -1.1508879e-05 0)
(0 0 0)
(-6.0994701e-08 -7.0282955e-08 0)
(-1.1656663e-07 -1.9117511e-07 0)
(-1.6600085e-07 -3.6222298e-07 0)
(-2.0951819e-07 -5.7809618e-07 0)
(-2.4749392e-07 -8.3332101e-07 0)
(-2.8028481e-07 -1.1225913e-06 0)
(-3.0823374e-07 -1.440922e-06 0)
(-3.3167342e-07 -1.7836629e-06 0)
(-3.5092725e-07 -2.1464943e-06 0)
(-3.6630882e-07 -2.5254173e-06 0)
(-3.7812129e-07 -2.9167436e-06 0)
(-3.8665679e-07 -3.3170838e-06 0)
(-3.92196e-07 -3.7233363e-06 0)
(-3.950078e-07 -4.1326749e-06 0)
(-3.9534915e-07 -4.5425366e-06 0)
(-3.9346502e-07 -4.9506095e-06 0)
(-3.8958852e-07 -5.35482e-06 0)
(-3.839411e-07 -5.7533208e-06 0)
(-3.7673296e-07 -6.1444796e-06 0)
(-3.6816344e-07 -6.5268671e-06 0)
(-3.5842162e-07 -6.8992463e-06 0)
(-3.4768694e-07 -7.2605627e-06 0)
(-3.3612992e-07 -7.6099345e-06 0)
(-3.2391288e-07 -7.9466438e-06 0)
(-3.1119077e-07 -8.2701292e-06 0)
(-2.9811197e-07 -8.5799784e-06 0)
(-2.8481906e-07 -8.8759222e-06 0)
(-2.7144965e-07 -9.1578294e-06 0)
(-2.5813709e-07 -9.4257021e-06 0)
(-2.4501137e-07 -9.6796708e-06 0)
(-2.3220019e-07 -9.9199909e-06 0)
(-2.1983008e-07 -1.014704e-05 0)
(-2.0802746e-07 -1.0361321e-05 0)
(-1.9691917e-07 -1.0563462e-05 0)
(-1.8663424e-07 -1.0754223e-05 0)
(-1.7731163e-07 -1.093448e-05 0)
(-1.6912814e-07 -1.1105159e-05 0)
(-1.623509e-07 -1.1266904e-05 0)
(-1.572814e-07 -1.1417874e-05 0)
(-1.5091563e-07 -1.155146e-05 0)
(0 0 0)
(-9.7454815e-12 -6.1911094e-08 0)
(-2.0295646e-11 -1.8316899e-07 0)
(-3.0923123e-11 -3.5513934e-07 0)
(-4.143325e-11 -5.7190622e-07 0)
(-5.1766193e-11 -8.2794638e-07 0)
(-6.1874755e-11 -1.1179721e-06 0)
(-7.1705525e-11 -1.4370057e-06 0)
(-8.1194294e-11 -1.7804001e-06 0)
(-9.027876e-11 -2.1438374e-06 0)
(-9.8895337e-11 -2.5233201e-06 0)
(-1.069897e-10 -2.9151615e-06 0)
(-1.1451058e-10 -3.3159739e-06 0)
(-1.2141906e-10 -3.7226574e-06 0)
(-1.2768121e-10 -4.1323876e-06 0)
(-1.3327636e-10 -4.5426033e-06 0)
(-1.3818932e-10 -4.9509942e-06 0)
(-1.4241765e-10 -5.3554886e-06 0)
(-1.45964e-10 -5.754241e-06 0)
(-1.488424e-10 -6.1456205e-06 0)
(-1.5107144e-10 -6.5281994e-06 0)
(-1.5267962e-10 -6.9007424e-06 0)
(-1.5370034e-10 -7.2621962e-06 0)
(-1.5417687e-10 -7.6116803e-06 0)
(-1.5416105e-10 -7.948478e-06 0)
(-1.5371828e-10 -8.272029e-06 0)
(-1.5292765e-10 -8.5819217e-06 0)
(-1.5187639e-10 -8.877888e-06 0)
(-1.5064246e-10 -9.1597973e-06 0)
(-1.4929014e-10 -9.4276523e-06 0)
(-1.4789718e-10 -9.6815839e-06 0)
(-1.4660903e-10 -9.9218474e-06 0)
(-1.4564322e-10 -1.0148821e-05 0)
(-1.4518225e-10 -1.0363006e-05 0)
(-1.4519564e-10 -1.0565031e-05 0)
(-1.4542328e-10 -1.075565e-05 0)
(-1.4556082e-10 -1.0935715e-05 0)
(-1.4550419e-10 -1.1106075e-05 0)
(-1.4551014e-10 -1.126727e-05 0)
(-1.4567435e-10 -1.1419061e-05 0)
(-1.4550669e-10 -1.1566488e-05 0)
(0 0 0)
(6.0975385e-08 -7.0277879e-08 0)
(1.165273e-07 -1.9116867e-07 0)
(1.659413e-07 -3.6221633e-07 0)
(2.0943848e-07 -5.7808963e-07 0)
(2.473943e-07 -8.3331462e-07 0)
(2.8016564e-07 -1.1225851e-06 0)
(3.0809552e-07 -1.440916e-06 0)
(3.3151679e-07 -1.7836571e-06 0)
(3.5075298e-07 -2.1464888e-06 0)
(3.661178e-07 -2.5254121e-06 0)
(3.7791451e-07 -2.9167387e-06 0)
(3.8643536e-07 -3.3170793e-06 0)
(3.919611e-07 -3.7233321e-06 0)
(3.9476068e-07 -4.1326711e-06 0)
(3.9509108e-07 -4.5425333e-06 0)
(3.9319733e-07 -4.9506066e-06 0)
(3.8931252e-07 -5.3548175e-06 0)
(3.8365811e-07 -5.7533188e-06 0)
(3.7644428e-07 -6.144478e-06 0)
(3.6787032e-07 -6.5268658e-06 0)
(3.5812527e-07 -6.8992455e-06 0)
(3.473885e-07 -7.2605622e-06 0)
(3.3583044e-07 -7.6099343e-06 0)
(3.2361332e-07 -7.9466439e-06 0)
(3.1089196e-07 -8.2701296e-06 0)
(2.9781459e-07 -8.5799789e-06 0)
(2.8452364e-07 -8.875923e-06 0)
(2.7115653e-07 -9.1578305e-06 0)
(2.5784645e-07 -9.4257037e-06 0)
(2.4472319e-07 -9.6796729e-06 0)
(2.3191416e-07 -9.9199929e-06 0)
(2.1954563e-07 -1.0147041e-05 0)
(2.0774379e-07 -1.036132e-05 0)
(1.9663551e-07 -1.0563461e-05 0)
(1.8635012e-07 -1.0754223e-05 0)
(1.7702691e-07 -1.0934481e-05 0)
(1.688429e-07 -1.110516e-05 0)
(1.6206515e-07 -1.1266905e-05 0)
(1.5699503e-07 -1.1417875e-05 0)
(1.5062909e-07 -1.1551463e-05 0)
(4.254508e-08 -2.303942e-08 0)
(1.4124525e-07 -9.4070389e-08 0)
(2.4860101e-07 -2.1446484e-07 0)
(3.4562162e-07 -3.8299069e-07 0)
(4.3165532e-07 -5.9632683e-07 0)
(5.0675219e-07 -8.4914269e-07 0)
(5.7151895e-07 -1.1361599e-06 0)
(6.2662326e-07 -1.45239e-06 0)
(6.7273066e-07 -1.7931785e-06 0)
(7.1048996e-07 -2.1542014e-06 0)
(7.4053025e-07 -2.5314551e-06 0)
(7.6345941e-07 -2.9212461e-06 0)
(7.798629e-07 -3.3201802e-06 0)
(7.903029e-07 -3.7251504e-06 0)
(7.9531766e-07 -4.1333251e-06 0)
(7.954212e-07 -4.5421359e-06 0)
(7.9110326e-07 -4.9492654e-06 0)
(7.8282949e-07 -5.3526345e-06 0)
(7.7104201e-07 -5.7503911e-06 0)
(7.5616005e-07 -6.1408975e-06 0)
(7.3858098e-07 -6.5227197e-06 0)
(7.1868137e-07 -6.8946163e-06 0)
(6.9681837e-07 -7.2555284e-06 0)
(6.733311e-07 -7.6045704e-06 0)
(6.4854225e-07 -7.941021e-06 0)
(6.2275963e-07 -8.2643155e-06 0)
(5.9627795e-07 -8.5740388e-06 0)
(5.6938036e-07 -8.8699194e-06 0)
(5.4234e-07 -9.1518243e-06 0)
(5.154212e-07 -9.4197535e-06 0)
(4.8888108e-07 -9.6738363e-06 0)
(4.6297192e-07 -9.9143265e-06 0)
(4.3794455e-07 -1.0141601e-05 0)
(4.1405081e-07 -1.0356164e-05 0)
(3.9154355e-07 -1.0558647e-05 0)
(3.7067146e-07 -1.0749812e-05 0)
(3.5165246e-07 -1.0930541e-05 0)
(3.3446903e-07 -1.1101732e-05 0)
(3.1801614e-07 -1.1263463e-05 0)
(2.9325868e-07 -1.1411601e-05 0)
(2.4976305e-07 -1.1508881e-05 0)
)
;

boundaryField
{
    left
    {
        type            calculated;
    }
    right
    {
        type            calculated;
    }
    top
    {
        type            calculated;
    }
    bottom
    {
        type            calculated;
    }
    frontAndBack
    {
        type            empty;
    }
}


// ************************************************************************* //
