/*--------------------------------*- C++ -*----------------------------------*\
| =========                 |                                                 |
| \\      /  F ield         | OpenFOAM: The Open Source CFD Toolbox           |
|  \\    /   O peration     | Version:  2512                                  |
|   \\  /    A nd           | Website:  www.openfoam.com                      |
|    \\/     M anipulation  |                                                 |
\*---------------------------------------------------------------------------*/
FoamFile
{
    version     2.0;
    format      ascii;
    arch        "LSB;label=32;scalar=64";
    class       volScalarField;
    location    "0.1";
    object      sigmaHyd;
}
// * * * * * * * * * * * * * * * * * * * * * * * * * * * * * * * * * * * * * //

dimensions      [1 -1 -2 0 0 0 0];

internalField   nonuniform List<scalar> 
160
(
-214987.78
-220658.47
-195030.54
-172469.58
-150503.74
-129832.26
-110498.02
-92492.166
-75781.907
-60328.458
-46089.664
-33020.991
-21076.06
-10207.293
-366.41141
8494.9282
16424.66
23469.726
29675.661
35086.091
39742.409
43683.386
46944.946
49559.909
51557.882
52965.127
53804.653
54096.368
53857.513
53102.438
51841.151
50077.956
47811.521
45040.968
41777.167
38075.392
34277.982
31160.207
38307.272
1915.7433
-100252.54
-74675.245
-65438.26
-57627.13
-50326.624
-43442.109
-36996.596
-30990.787
-25415.782
-20259.157
-15507.038
-11144.667
-7156.6803
-3527.2883
-240.48785
2719.7702
5369.3835
7723.9418
9798.5545
11607.718
13165.174
14483.813
15575.569
16451.354
17121.006
17593.25
17875.722
17974.989
17896.676
17645.463
17224.798
16636.674
15881.502
14960.428
13882.114
12686.015
11490.465
10465.394
6695.5495
-18761.713
100188.3
74618.864
65384.197
57573.863
50273.972
43390.348
36946.102
30941.967
25369.017
20214.808
15465.408
11106.02
7121.2117
3495.1561
211.786
-2744.9821
-5391.1013
-7742.1912
-9813.4089
-11619.276
-13173.578
-14489.229
-15578.21
-16451.473
-17118.921
-17589.373
-17870.641
-17969.592
-17892.061
-17642.472
-17223.336
-16635.475
-15879.494
-14958.092
-13881.51
-12688.709
-11495.329
-10470.51
-6700.5857
18753.904
214940.24
220607.6
194979.17
172417.77
150452.21
129781.52
110448.5
92444.245
75735.957
60284.809
46048.625
32982.806
21040.949
10175.405
337.86762
-8520.072
-16446.373
-23488.039
-29690.624
-35097.81
-39751.01
-43689.045
-46947.871
-49560.359
-51556.161
-52961.592
-53799.743
-54090.8
-53852.28
-53098.457
-51838.591
-50075.796
-47809.008
-45038.606
-41776.866
-38078.692
-34283.329
-31164.358
-38309.656
-1915.4752
)
;

boundaryField
{
    left
    {
        type            zeroGradient;
    }
    right
    {
        type            zeroGradient;
    }
    top
    {
        type            zeroGradient;
    }
    bottom
    {
        type            zeroGradient;
    }
    frontAndBack
    {
        type            empty;
    }
}


// ************************************************************************* //
