/*--------------------------------*- C++ -*----------------------------------*\
| =========                 |                                                 |
| \\      /  F ield         | OpenFOAM: The Open Source CFD Toolbox           |
|  \\    /   O peration     | Version:  2512                                  |
|   \\  /    A nd           | Website:  www.openfoam.com                      |
|    \\/     M anipulation  |                                                 |
\*---------------------------------------------------------------------------*/
FoamFile
{
    version     2.0;
    format      ascii;
    arch        "LSB;label=32;scalar=64";
    class       surfaceSymmTensorField;
    location    "0.1";
    object      sigmaf;
}
// * * * * * * * * * * * * * * * * * * * * * * * * * * * * * * * * * * * * * //

dimensions      [1 -1 -2 0 0 0 0];

internalField   nonuniform List<symmTensor> 
276
(
(-708871.42 -44378.084 0 -22281.236 0 -168727.54)
(-492521.95 -105148.16 0 -15214.484 0 -117169.95)
(-628746.19 -43951.535 0 -2207.8304 0 -145604.77)
(-443934.28 -81677.756 0 2137.152 0 -101953.18)
(-555441.41 -43739.134 0 -389.30084 0 -128268.63)
(-394754.15 -75870.963 0 2398.639 0 -90543.58)
(-486965.63 -42622.132 0 -143.80592 0 -112409.87)
(-347692.09 -72034.081 0 1488.7131 0 -79893.087)
(-422746.51 -41229.189 0 -151.78866 0 -97591.916)
(-303447.79 -68746.419 0 1193.6797 0 -69750.948)
(-362652.85 -39779.022 0 -151.46548 0 -83724.072)
(-261994.42 -65554.747 0 1109.1046 0 -60204.303)
(-306594.64 -38327.111 0 -141.35755 0 -70785.231)
(-223268.16 -62414.941 0 1077.4255 0 -51274.786)
(-254471.41 -36887.043 0 -126.38049 0 -58753.335)
(-187201.48 -59328.093 0 1053.2825 0 -42957.277)
(-206173.61 -35460.671 0 -109.45257 0 -47603.784)
(-153721.71 -56301.398 0 1029.7439 0 -35236.608)
(-161578.86 -34050.584 0 -90.985416 0 -37308.425)
(-122751.42 -53340.182 0 1003.8076 0 -28095.603)
(-120559.1 -32656.321 0 -71.733866 0 -27837.885)
(-94206.511 -50449.212 0 977.40996 0 -21514.408)
(-82977.671 -31279.893 0 -51.639599 0 -19160.61)
(-67999.324 -47631.624 0 948.97134 0 -15473.158)
(-48695.348 -29920.322 0 -31.263856 0 -11244.603)
(-44037.416 -44890.117 0 920.79042 0 -9949.9905)
(-17568.253 -28579.317 0 -10.589867 0 -4056.6561)
(-22227.084 -42226.015 0 891.18449 0 -4923.6692)
(10547.118 -27255.42 0 9.9190855 0 2436.2392)
(-2472.0267 -39640.112 0 862.58718 0 -371.40912)
(35795.079 -25950.028 0 30.226345 0 8267.3781)
(15322.994 -37132 0 833.17992 0 3728.3478)
(58316.832 -24661.227 0 49.97264 0 13469.263)
(31253.699 -34700.664 0 805.48368 0 7398.273)
(78250.846 -23390.109 0 69.079717 0 18073.829)
(45412.588 -32344.105 0 777.5418 0 10659.261)
(95730.093 -22134.362 0 87.296504 0 22111.705)
(57890.729 -30059.7 0 751.91129 0 13532.917)
(110881.77 -20894.808 0 104.51801 0 25612.221)
(68774.112 -27844.097 0 726.50538 0 16038.604)
(123825.71 -19668.832 0 120.59962 0 28602.995)
(78145.703 -25693.369 0 703.87345 0 18196.056)
(134673.6 -18457.059 0 135.4237 0 31109.774)
(86081.932 -23603.147 0 681.80827 0 20022.402)
(143528.46 -17256.696 0 148.94421 0 33156.325)
(92655.026 -21568.599 0 662.81571 0 21534.886)
(150483.64 -16068.273 0 161.04205 0 34764.158)
(97929.694 -19584.746 0 644.5838 0 22747.91)
(155623.21 -14888.988 0 171.75959 0 35952.684)
(101965.73 -17646.325 0 629.52205 0 23675.828)
(159020.93 -13719.404 0 180.94902 0 36738.896)
(104815.03 -15748.268 0 615.25965 0 24330.066)
(160741.64 -12557.274 0 188.7199 0 37137.775)
(106524.39 -13885.62 0 603.84752 0 24721.901)
(160840.56 -11403.54 0 194.79445 0 37162.005)
(107133.27 -12054.012 0 593.27915 0 24859.973)
(159364.33 -10256.57 0 199.44889 0 36822.41)
(106675.92 -10248.724 0 584.81634 0 24752.478)
(156348.12 -9113.9223 0 202.87203 0 36127.152)
(105179.29 -8463.0602 0 578.49376 0 24405.642)
(151813.66 -7969.6045 0 205.82285 0 35081.419)
(102662.11 -6687.1971 0 575.42533 0 23824.046)
(145769.19 -6818.9549 0 209.66323 0 33687.429)
(99133.749 -4911.0746 0 576.283 0 23010.007)
(138214.21 -5664.4395 0 216.56366 0 31945.563)
(94595.311 -3131.5179 0 581.12215 0 21963.792)
(129160.99 -4524.2173 0 237.90373 0 29861.282)
(89044.193 -1358.34 0 592.9422 0 20685.493)
(118634.44 -3445.4001 0 307.6201 0 27448.167)
(82471.851 385.19421 0 641.33138 0 19179.965)
(106689.94 -2609.0841 0 481.52285 0 24731.876)
(74842.085 2074.7991 0 870.65343 0 17472.17)
(93318.414 -2792.6794 0 566.65393 0 21665.785)
(66032.621 3772.8657 0 1882.2871 0 15672.671)
(77849.311 -6508.2864 0 -4175.2502 0 17001.706)
(55828.953 6144.3979 0 5370.1152 0 14122.862)
(53520.954 -18399.554 0 -34135.76 0 4473.5064)
(44452.637 15325.179 0 12988.905 0 13255.74)
(43553.735 45287.209 0 -24574.802 0 4379.7538)
(-237580.18 -102654.6 0 -4299.1722 0 -55818.313)
(-80.865038 -106755.1 0 -9.67062 0 -20.892844)
(-211566.72 -97300.291 0 578.90086 0 -48689.497)
(-84.373859 -107662.91 0 0.091518771 0 -19.449771)
(-186533.37 -91698.359 0 709.14342 0 -42882.515)
(-84.216182 -100889.71 0 2.6787785 0 -18.816324)
(-163412.83 -87030.972 0 495.83081 0 -37596.231)
(-83.345747 -95139.44 0 2.4508911 0 -18.668044)
(-141911.43 -82696.102 0 423.62488 0 -32651.033)
(-81.966493 -90227.934 0 2.3235172 0 -18.379148)
(-121841.16 -78492.254 0 401.75409 0 -28024.478)
(-80.341057 -85601.371 0 1.7581381 0 -18.13452)
(-103126.56 -74375.797 0 392.26364 0 -23707.914)
(-78.102833 -81101.259 0 1.8110836 0 -17.605788)
(-85724.57 -70345.73 0 384.47264 0 -19693.869)
(-75.478822 -76698.521 0 1.4377703 0 -17.086397)
(-69595.384 -66408.592 0 376.56353 0 -15973.574)
(-72.179335 -72395.297 0 1.6546381 0 -16.27493)
(-54699.12 -62571.167 0 368.12016 0 -12537.923)
(-68.524936 -68198.729 0 1.3589316 0 -15.499847)
(-40992.436 -58839.033 0 359.34124 0 -9376.8681)
(-64.265467 -64115.596 0 1.6313695 0 -14.454023)
(-28431.001 -55216.489 0 350.20733 0 -6480.1833)
(-59.772906 -60151.333 0 1.3138089 0 -13.490561)
(-16968.124 -51706.424 0 340.9187 0 -3837.0474)
(-54.799338 -56309.92 0 1.5618152 0 -12.285582)
(-6556.859 -48310.437 0 331.51207 0 -1436.6185)
(-49.74502 -52593.821 0 1.173844 0 -11.208733)
(2850.6806 -45028.751 0 322.14945 0 732.19156)
(-44.349585 -49004.057 0 1.3719259 0 -9.9179214)
(11301.843 -41860.361 0 312.9062 0 2680.3267)
(-39.028066 -45540.173 0 0.91885582 0 -8.7944332)
(18843.564 -38803 0 303.89898 0 4418.6454)
(-33.502638 -42200.371 0 1.0798964 0 -7.4821711)
(25521.511 -35853.308 0 295.22465 0 5957.7082)
(-28.193725 -38981.515 0 0.59047066 0 -6.3699817)
(31379.74 -33006.855 0 286.95057 0 7307.6979)
(-22.805978 -35879.313 0 0.73732395 0 -5.0927663)
(36460.419 -30258.33 0 279.18266 0 8478.3696)
(-17.759441 -32888.35 0 0.24285048 0 -4.0422902)
(40803.131 -27601.61 0 271.93911 0 9478.8623)
(-12.745734 -30002.32 0 0.3991623 0 -2.8492088)
(44445.101 -25029.962 0 265.32302 0 10317.79)
(-8.1869741 -27214.087 0 -0.070725517 0 -1.905623)
(47420.261 -22536.154 0 259.30713 0 11002.977)
(-3.7774831 -24515.944 0 0.11577913 0 -0.8450086)
(49759.89 -20112.656 0 253.97897 0 11541.662)
(0.034555775 -21899.696 0 -0.30658177 0 -0.06277523)
(51491.578 -17751.797 0 249.2679 0 11940.195)
(3.5256213 -19356.95 0 -0.055163734 0 0.80087483)
(52640.218 -15446.108 0 245.14516 0 12204.315)
(6.2047551 -16879.294 0 -0.40109776 0 1.3393055)
(53227.016 -13188.462 0 241.41194 0 12338.868)
(8.3512705 -14458.687 0 -0.19607497 0 1.8819682)
(53270.72 -10972.467 0 237.70544 0 12348.098)
(9.5622149 -12087.575 0 -1.030599 0 1.9688344)
(52786.104 -8790.0763 0 234.08781 0 12235.429)
(10.0815 -9757.8796 0 -2.4568456 0 1.7595357)
(51784.689 -6630.1206 0 231.21134 0 12003.669)
(9.5290646 -7458.779 0 -5.3820683 0 0.95699915)
(50272.509 -4477.4082 0 230.31761 0 11654.498)
(8.0138575 -5175.6956 0 -7.6378901 0 0.086761707)
(48251.534 -2319.4795 0 232.33443 0 11188.585)
(5.6389693 -2893.3563 0 -6.958458 0 -0.3044974)
(45717.318 -153.91221 0 235.96819 0 10604.604)
(3.2149009 -602.89725 0 -1.5760884 0 0.37818749)
(42652.645 2014.7922 0 242.61639 0 9898.9065)
(1.0094109 1698.9718 0 3.7216608 0 1.0917858)
(38989.353 4214.8359 0 277.2329 0 9061.5198)
(-0.54657673 4040.3416 0 4.2484741 0 0.85428401)
(34468.191 6634.7178 0 461.5031 0 8060.6986)
(-1.3766921 6586.3107 0 -0.92121972 0 -0.53028735)
(28185.993 10071.491 0 1126.3162 0 6764.379)
(-1.4264606 10040.064 0 -6.2648237 0 -1.7749118)
(17465 16994.628 0 2305.767 0 4562.4848)
(-2.0367963 16816.421 0 -6.630853 0 -2.0002268)
(-288.85749 31494.785 0 -9586.2679 0 -2278.8751)
(-2.5828927 32850.323 0 -4.2306876 0 -1.5723647)
(-0.8923007 44287.769 0 -7.4452039 0 -1.9240395)
(237410.35 -102649.91 0 4288.8285 0 55776.733)
(492363.43 -105134.58 0 15201.158 0 117130.29)
(211395.93 -97295.438 0 -578.61657 0 48650.15)
(443774.21 -81669.357 0 -2136.9591 0 101916.29)
(186364.98 -91691.486 0 -706.44534 0 42844.276)
(394593.26 -75859.007 0 -2395.7324 0 90507.122)
(163246.47 -87021.443 0 -493.31524 0 37558.421)
(347531.72 -72017.446 0 -1485.9223 0 79856.723)
(141748.57 -82684.471 0 -421.36827 0 32613.97)
(303289.18 -68724.913 0 -1191.2014 0 69714.919)
(121681.77 -78478.405 0 -399.94012 0 27988.114)
(261838.65 -65529.181 0 -1106.9841 0 60168.845)
(102972.43 -74360.27 0 -390.53291 0 23672.746)
(223116.36 -62385.369 0 -1075.4975 0 51240.198)
(85576.039 -70328.311 0 -382.93407 0 19659.947)
(187054.71 -59295.128 0 -1051.5531 0 42923.806)
(69454.158 -66389.793 0 -374.94753 0 15941.356)
(153581.06 -56265.03 0 -1028.0872 0 35204.533)
(54565.57 -62550.739 0 -366.55259 0 12507.466)
(122617.87 -53300.928 0 -1002.2366 0 28065.147)
(40867.94 -58817.508 0 -357.66404 0 9348.5252)
(94080.989 -50407.113 0 -975.82603 0 21485.807)
(28315.825 -55193.599 0 -348.56571 0 6453.983)
(67882.575 -47587.151 0 -947.44545 0 15446.568)
(16863.223 -51682.725 0 -339.24483 0 3813.2258)
(43930.107 -44843.377 0 -919.25051 0 9925.5823)
(6462.3458 -48285.643 0 -329.93684 0 1415.1713)
(22129.677 -42177.436 0 -889.76069 0 4901.5192)
(-2934.2905 -45003.435 0 -320.65264 0 -751.14073)
(2384.9084 -39589.856 0 -861.20016 0 351.62498)
(-11374.599 -41834.223 0 -311.57371 0 -2696.8091)
(-15399.659 -37080.441 0 -831.991 0 -3745.7653)
(-18905.365 -38776.615 0 -302.73173 0 -4432.6376)
(-31319.797 -34648.009 0 -804.3797 0 -7413.2714)
(-25572.553 -35826.362 0 -294.2549 0 -5969.2633)
(-45468.23 -32290.664 0 -776.69674 0 -10671.906)
(-31420.288 -32979.919 0 -286.18938 0 -7316.8793)
(-57936.049 -30005.706 0 -751.17065 0 -13543.205)
(-36490.801 -30231.074 0 -278.61004 0 -8485.2486)
(-68809.468 -27789.795 0 -726.04668 0 -16046.657)
(-40823.929 -27574.591 0 -271.57026 0 -9483.5767)
(-78171.449 -25639.004 0 -703.50128 0 -18201.912)
(-44456.787 -25002.837 0 -265.09592 0 -10320.435)
(-86098.657 -23548.9 0 -681.70565 0 -20026.238)
(-47423.735 -22509.457 0 -259.24154 0 -11003.764)
(-92663.317 -21514.713 0 -662.75986 0 -21536.787)
(-49755.887 -20086.017 0 -253.97258 0 -11540.737)
(-97930.418 -19531.331 0 -644.77655 0 -22748.122)
(-51481.434 -17725.713 0 -249.35176 0 -11937.874)
(-101959.78 -17593.587 0 -629.67993 0 -23674.492)
(-52625.147 -15420.199 0 -245.3478 0 -12200.883)
(-104803.67 -15696.257 0 -615.66544 0 -24327.538)
(-53208.789 -13163.296 0 -242.34778 0 -12334.878)
(-106508.89 -13834.58 0 -604.35265 0 -24718.441)
(-53250.674 -10947.946 0 -240.81025 0 -12344.189)
(-107115.39 -12004.235 0 -595.17665 0 -24856.285)
(-52765.878 -8766.7022 0 -240.9882 0 -12232.354)
(-106657.57 -10200.51 0 -589.76307 0 -24749.384)
(-51765.601 -6607.4119 0 -241.84266 0 -12001.718)
(-105162.36 -8416.3166 0 -587.39263 0 -24403.788)
(-50256.761 -4454.7586 0 -240.96942 0 -11653.322)
(-102648.04 -6641.2606 0 -586.09439 0 -23823.262)
(-48240.931 -2296.0852 0 -236.86717 0 -11187.184)
(-99122.867 -4865.2295 0 -582.25066 0 -23008.873)
(-45713.402 -131.03307 0 -232.20965 0 -10602.833)
(-94588.262 -3086.2775 0 -578.2489 0 -21961.503)
(-42653.763 2035.8873 0 -235.62184 0 -9897.5503)
(-89041.491 -1315.4462 0 -584.31139 0 -20682.877)
(-38992.998 4233.6516 0 -275.82242 0 -9062.0355)
(-82473.943 425.12137 0 -636.12177 0 -19179.246)
(-34470.789 6652.3569 0 -469.05217 0 -8063.0402)
(-74848.613 2112.2818 0 -876.2416 0 -17474.967)
(-28187.072 10089.167 0 -1137.0646 0 -6767.1085)
(-66040.72 3809.1646 0 -1895.4756 0 -15677.584)
(-17469.853 17011.847 0 -2314.1589 0 -4565.5413)
(-55835.765 6179.0227 0 -5379.3852 0 -14126.573)
(283.49389 31508.654 0 9578.1207 0 2275.7572)
(-44458.703 15356.98 0 -12992.292 0 -13257.922)
(-43556.278 45308.654 0 24570.721 0 -4381.2825)
(708719.27 -44374.311 0 22275.699 0 168691.15)
(628594.08 -43947.557 0 2208.8182 0 145569.9)
(555287.48 -43732.608 0 391.36288 0 128233.58)
(486812.38 -42612.651 0 146.097 0 112375.03)
(422594.29 -41217.571 0 153.71243 0 97557.23)
(362504.07 -39765.147 0 153.34471 0 83690.172)
(306449.5 -38311.585 0 142.9252 0 70752.097)
(254331.98 -36869.602 0 127.96017 0 58721.524)
(206040.05 -35441.867 0 110.80928 0 47573.275)
(161452.91 -34030.123 0 92.38319 0 37279.683)
(120440.87 -32634.787 0 72.961553 0 27810.883)
(82868.489 -31256.962 0 52.889671 0 19135.703)
(48595.221 -29896.617 0 32.354596 0 11221.748)
(17478.078 -28554.48 0 11.6506 0 4036.0911)
(-10627.448 -27230.107 0 -9.0248502 0 -2454.5707)
(-35865.109 -25923.846 0 -29.417289 0 -8283.3522)
(-58376.774 -24634.855 0 -49.330993 0 -13482.947)
(-78300.654 -23363.12 0 -68.561886 0 -18085.204)
(-95770.078 -22107.447 0 -86.930575 0 -22120.848)
(-110912.26 -20867.511 0 -104.29011 0 -25619.203)
(-123847.1 -19641.843 0 -120.49025 0 -28607.905)
(-134686.55 -18429.895 0 -135.44316 0 -31112.767)
(-143533.53 -17230.044 0 -149.0406 0 -33157.517)
(-150481.83 -16041.589 0 -161.23664 0 -34763.785)
(-155615.34 -14862.951 0 -172.00216 0 -35950.924)
(-159008.36 -13693.406 0 -181.34768 0 -36736.086)
(-160725.62 -12532.21 0 -189.51345 0 -37134.261)
(-160823.09 -11379.329 0 -196.71437 0 -37158.416)
(-159347.38 -10233.673 0 -202.99319 0 -36819.316)
(-156333.76 -9091.4614 0 -207.70431 0 -36124.954)
(-151802.87 -7946.1907 0 -209.93775 0 -35079.878)
(-145761.71 -6794.2732 0 -210.58172 0 -33685.914)
(-138211.36 -5640.8839 0 -214.51339 0 -31944.431)
(-129161.53 -4503.8852 0 -235.19802 0 -29860.784)
(-118640.66 -3428.4291 0 -308.43993 0 -27449.792)
(-106700.53 -2592.5996 0 -486.707 0 -24735.515)
(-93329.616 -2773.7139 0 -572.82057 0 -21669.793)
(-77856.972 -6489.4765 0 4171.665 0 -17004.302)
(-53530.362 -18385.227 0 34132.273 0 -4476.482)
)
;

boundaryField
{
    left
    {
        type            calculated;
        value           nonuniform List<symmTensor> 4((-813461.87 -61726.358 0 -59689.858 0 -201496.55) (-239338.51 -90698.419 0 -71801.552 0 -71801.552) (239179.03 -90687.197 0 71753.71 0 71753.71) (813301.69 -61708.391 0 59675.144 0 201456.19));
    }
    right
    {
        type            calculated;
        value           nonuniform List<symmTensor> 4((-742.60022 5768.9878 0 -340871.32 0 -78833.981) (-253.76395 8673.7295 0 -120303.23 0 -27820.845) (253.76099 8673.7624 0 120275.61 0 27814.469) (742.60505 5769.0251 0 340878.92 0 78835.736));
    }
    top
    {
        type            calculated;
        value           nonuniform List<symmTensor> 
40
(
(789740.32 -847.82596 0 463.1032 0 182354.64)
(859020.67 -1623.9784 0 581.95673 0 198369.84)
(776342.51 -2582.6988 0 592.31679 0 179292.65)
(688444.68 -3576.7676 0 583.46611 0 159006.5)
(600944.83 -4551.4491 0 566.31641 0 138810.26)
(518297.47 -5492.9445 0 544.61401 0 119732.79)
(440990.26 -6393.7204 0 519.18653 0 101886.8)
(369006.35 -7247.7748 0 490.47378 0 85268.498)
(302212.04 -8049.8441 0 458.88383 0 69847.135)
(240449.8 -8795.39 0 424.85027 0 55586.458)
(183549.92 -9480.6473 0 388.82944 0 42447.405)
(131333.32 -10102.658 0 351.29189 0 30388.757)
(83613.787 -10659.287 0 312.71341 0 19367.654)
(40200.149 -11149.222 0 273.56673 0 9340.0882)
(898.63265 -11571.964 0 234.31344 0 261.4491)
(-34484.947 -11927.794 0 195.39681 0 -7912.9731)
(-66142.932 -12217.735 0 157.23503 0 -15227.468)
(-94263.813 -12443.508 0 120.2155 0 -21725.445)
(-119030.24 -12607.462 0 84.689913 0 -27448.973)
(-140617.33 -12712.518 0 50.970331 0 -32438.392)
(-159191.07 -12762.09 0 19.32619 0 -36731.941)
(-174907.01 -12760.011 0 -10.017716 0 -40365.468)
(-187909.17 -12710.452 0 -36.882401 0 -43372.167)
(-198329.19 -12617.845 0 -61.13498 0 -45782.384)
(-206285.71 -12486.801 0 -82.688189 0 -47623.477)
(-211883.93 -12322.035 0 -101.49926 0 -48919.714)
(-215215.94 -12128.29 0 -117.56828 0 -49692.347)
(-216362.19 -11910.264 0 -130.93642 0 -49959.952)
(-215392.87 -11672.541 0 -141.68334 0 -49738.744)
(-212366 -11419.525 0 -149.92329 0 -49042.137)
(-207319.96 -11155.389 0 -155.79934 0 -47879.02)
(-200266.85 -10884.039 0 -159.47848 0 -46252.229)
(-191198.22 -10609.105 0 -161.1504 0 -44159.854)
(-180106.41 -10333.916 0 -161.03174 0 -41600.18)
(-167024.57 -10061.465 0 -159.41494 0 -38580.92)
(-152199.09 -9793.7667 0 -157.05902 0 -35159.112)
(-137514.95 -9526.7251 0 -158.43269 0 -31770.78)
(-131678.17 -9206.1977 0 -183.33176 0 -30429.578)
(-198171.65 -8577.1852 0 -373.25423 0 -45818.056)
(-348190.89 -5694.5101 0 -752.90628 0 -80525.492)
)
;
    }
    bottom
    {
        type            calculated;
        value           nonuniform List<symmTensor> 
40
(
(-789858.86 -847.60862 0 -462.94167 0 -182381.95)
(-859160.91 -1623.9057 0 -581.76762 0 -198402.16)
(-776491.33 -2582.6953 0 -592.11877 0 -179326.95)
(-688597.52 -3576.7858 0 -583.26681 0 -159041.72)
(-601097.68 -4551.4748 0 -566.12264 0 -138845.49)
(-518448.21 -5492.9744 0 -544.42977 0 -119767.53)
(-441137.43 -6393.7537 0 -519.0148 0 -101920.72)
(-369148.8 -7247.8114 0 -490.31687 0 -85301.335)
(-302348.67 -8049.8836 0 -458.74387 0 -69878.634)
(-240579.68 -8795.4323 0 -424.72891 0 -55616.403)
(-183672.14 -9480.6917 0 -388.72814 0 -42475.586)
(-131447.17 -10102.704 0 -351.21159 0 -30415.01)
(-83718.599 -10659.334 0 -312.65482 0 -19391.828)
(-40295.476 -11149.27 0 -273.53001 0 -9362.0784)
(-984.08459 -11572.011 0 -234.29855 0 -281.16534)
(34409.551 -11927.839 0 -195.4032 0 7895.5726)
(66077.715 -12217.779 0 -157.26191 0 15212.412)
(94208.698 -12443.548 0 -120.2617 0 21712.716)
(118985.1 -12607.499 0 -84.754054 0 27438.541)
(140581.85 -12712.551 0 -51.050732 0 32430.185)
(159164.88 -12762.119 0 -19.421035 0 36725.875)
(174889.58 -12760.035 0 9.9104407 0 40361.42)
(187899.87 -12710.471 0 36.764787 0 43369.994)
(198327.25 -12617.859 0 61.0092 0 45781.905)
(206290.25 -12486.81 0 82.55646 0 47624.493)
(211894.03 -12322.04 0 101.3638 0 48922.013)
(215230.64 -12128.29 0 117.43133 0 49695.709)
(216379.85 -11910.258 0 130.79992 0 49963.995)
(215410.77 -11672.529 0 141.54897 0 49742.842)
(212380.85 -11419.512 0 149.79261 0 49045.533)
(207329.9 -11155.377 0 155.67453 0 47881.286)
(200273.73 -10884.03 0 159.36253 0 46253.791)
(191204.52 -10609.088 0 161.04613 0 44161.285)
(180112.13 -10333.881 0 160.94025 0 41601.477)
(167025.55 -10061.411 0 159.33596 0 38581.129)
(152191.03 -9793.7071 0 156.99209 0 35157.235)
(137501.43 -9526.6799 0 158.37901 0 31767.649)
(131668.85 -9206.177 0 183.29432 0 30427.418)
(198168.64 -8577.1815 0 373.23629 0 45817.356)
(348186.4 -5694.4989 0 752.90126 0 80524.454)
)
;
    }
    frontAndBack
    {
        type            empty;
    }
}


// ************************************************************************* //
