/*--------------------------------*- C++ -*----------------------------------*\
| =========                 |                                                 |
| \\      /  F ield         | OpenFOAM: The Open Source CFD Toolbox           |
|  \\    /   O peration     | Version:  2512                                  |
|   \\  /    A nd           | Website:  www.openfoam.com                      |
|    \\/     M anipulation  |                                                 |
\*---------------------------------------------------------------------------*/
FoamFile
{
    version     2.0;
    format      ascii;
    arch        "LSB;label=32;scalar=64";
    class       volSymmTensorField;
    location    "0.1";
    object      sigma;
}
// * * * * * * * * * * * * * * * * * * * * * * * * * * * * * * * * * * * * * //

dimensions      [1 -1 -2 0 0 0 0];

internalField   nonuniform List<symmTensor> 
160
(
(-590639.59 -28456.397 9.9420747e-12 44901.366 9.9420747e-12 -99225.131)
(-603212.3 -44529.126 -1.193049e-10 43079.249 -2.3860979e-10 -101842.37)
(-540701.57 -42804.497 7.9536597e-11 45624.037 7.9536597e-11 -90014.097)
(-478278.75 -42027.017 7.9536597e-11 40471.349 9.5443917e-10 -79601.345)
(-417437.78 -40727.726 -7.9536597e-11 35389.832 -6.3629278e-10 -69463.263)
(-360157.98 -39361.277 1.5907319e-10 30583.787 -6.3629278e-10 -59922.58)
(-306604.13 -37983.739 -6.3629278e-10 26109.152 -3.1814639e-10 -50999.087)
(-256734.53 -36613.58 -3.1814639e-10 21946.722 -6.3629278e-10 -42688.692)
(-210453.83 -35254.595 3.1814639e-10 18084.378 -1.2725856e-09 -34976.265)
(-167653.45 -33908.221 -3.1814639e-10 14511.982 -6.3629278e-10 -27843.904)
(-128216.48 -32575.29 -1.5907319e-10 11219.643 -1.9088783e-09 -21272.153)
(-92019.618 -31256.441 -3.1814639e-10 8197.1035 3.8177567e-09 -15240.457)
(-58934.511 -29952.109 0 5433.7424 1.2725856e-09 -9727.4124)
(-28829.465 -28662.599 -1.1135124e-09 2918.6444 3.8177567e-09 -4711.0582)
(-1570.8814 -27388.025 -3.1814639e-10 640.7601 2.5451711e-09 -169.11296)
(22975.048 -26128.365 1.5907319e-10 -1410.9999 -3.8177567e-09 3920.7361)
(44940.977 -24883.412 -3.1814639e-10 -3247.6085 -5.0903422e-09 7580.6125)
(64456.836 -23652.83 1.5907319e-10 -4879.8383 2.5451711e-09 10832.181)
(81648.643 -22436.118 1.5907319e-10 -6318.1203 -3.8177567e-09 13696.459)
(96637.167 -21232.659 -6.3629278e-10 -7572.4756 -5.0903422e-09 16193.58)
(109536.98 -20041.709 1.5907319e-10 -8652.3989 -7.6355133e-09 18342.651)
(120455.41 -18862.443 4.7721958e-10 -9566.8101 2.5451711e-09 20161.563)
(129491.91 -17693.962 -4.7721958e-10 -10323.967 0 21666.898)
(136737.37 -16535.33 3.1814639e-10 -10931.444 -5.0903422e-09 22873.804)
(142273.77 -15385.613 7.9536597e-10 -11396.075 -2.5451711e-09 23795.945)
(146173.93 -14243.909 1.5907319e-10 -11723.992 0 24445.443)
(148501.63 -13109.548 3.1814639e-10 -11920.584 -2.5451711e-09 24832.917)
(149312.13 -11982.069 -3.1814639e-10 -11990.578 0 24967.555)
(148653 -10861.174 1.5907319e-10 -11937.772 -2.5451711e-09 24857.314)
(146563.3 -9745.0363 -1.5907319e-10 -11764.803 -5.0903422e-09 24508.818)
(143070.02 -8629.7565 -7.9536597e-11 -11473.253 1.7816198e-08 23926.685)
(138184.74 -7510.4936 1.5907319e-10 -11063.778 -1.0180684e-08 23112.903)
(131904.23 -6386.2421 3.1814639e-10 -10536.526 2.5451711e-09 22066.856)
(124222.81 -5265.2291 3.1814639e-10 -9888.0498 -2.5451711e-09 20788.139)
(115149.93 -4169.1375 1.5907319e-10 -9100.193 -7.6355133e-09 19281.77)
(104775.11 -3156.2592 -1.5907319e-10 -8122.192 5.0903422e-09 17573.258)
(93867.474 -2507.591 1.5907319e-10 -6854.1353 -1.0180684e-08 15820.607)
(85855.396 -2940.583 2.3860979e-10 -6756.41 0 14381.634)
(109454.37 -10621.069 0 -12212.832 -2.5451711e-09 17680.28)
(154302.15 6958.0284 2.3860979e-10 -149439.11 0 884.18922)
(-233976.39 -109552.45 -1.9884149e-11 -20510.835 7.456556e-12 -46270.405)
(-205488.51 -99413.478 -1.4913112e-10 15928.271 -2.1872564e-10 -34465.498)
(-182340.26 -93079.943 -1.193049e-10 16227.754 7.9536597e-11 -30202.274)
(-160528.98 -87989.866 -5.9652448e-11 14244.723 4.7721958e-10 -26597.137)
(-140107.89 -83609.339 -3.1814639e-10 12355.687 3.1814639e-10 -23227.672)
(-120976.36 -79432.232 -1.9884149e-10 10700.24 0 -20050.204)
(-103102.29 -75352.683 -2.3860979e-10 9187.8529 1.2725856e-09 -17075.352)
(-86454.74 -71355.49 -5.1698788e-10 7785.8196 -6.3629278e-10 -14303.44)
(-71000.865 -67445.318 -7.9536597e-11 6483.8782 3.1814639e-09 -11730.361)
(-56704.801 -63629.087 -1.5907319e-10 5277.7102 1.9088783e-09 -9350.3802)
(-43528.052 -59912.899 -2.3860979e-10 4164.0316 1.2725856e-09 -7157.0946)
(-31429.917 -56301.586 -1.5907319e-10 3139.6074 1.2725856e-09 -5143.6926)
(-20368.053 -52798.653 -3.1814639e-10 2201.0952 0 -3303.0832)
(-10298.955 -49406.291 -3.9768299e-10 1345.0691 -6.3629278e-09 -1627.9792)
(-1178.519 -46125.384 -7.9536597e-11 568.04985 1.2725856e-09 -110.99439)
(7037.4848 -42955.553 -1.5907319e-10 -133.45274 -1.2725856e-09 1255.2785)
(14392.88 -39895.193 -2.3860979e-10 -762.90644 -3.8177567e-09 2478.177)
(20930.648 -36941.561 -3.1814639e-10 -1323.7188 1.2725856e-09 3564.8962)
(26692.459 -34090.85 -7.9536597e-11 -1819.2057 -2.5451711e-09 4522.4098)
(31718.304 -31338.305 1.5907319e-10 -2252.559 7.6355133e-09 5357.4081)
(36046.11 -28678.342 -2.7837809e-10 -2626.8207 -2.5451711e-09 6076.2343)
(39711.461 -26104.686 -4.3745129e-10 -2944.8582 -2.5451711e-09 6684.8369)
(42747.328 -23610.517 -2.7837809e-10 -3209.3444 1.5271027e-08 7188.7242)
(45183.873 -21188.629 -1.193049e-10 -3422.744 -7.6355133e-09 7592.9326)
(47048.317 -18831.603 -3.1814639e-10 -3587.3024 5.0903422e-09 7902.0027)
(48364.875 -16532.045 -3.5791469e-10 -3705.087 -2.5451711e-09 8119.9614)
(49154.812 -14282.871 7.9536597e-11 -3777.9797 -2.5451711e-09 8250.3331)
(49436.594 -12077.497 -2.3860979e-10 -3807.7756 0 8296.1488)
(49225.887 -9908.9518 -7.9536597e-11 -3795.8626 -5.0903422e-09 8260.0044)
(48535.168 -7767.7578 -1.193049e-10 -3742.8398 7.6355133e-09 8144.0597)
(47372.9 -5640.8731 -2.7837809e-10 -3648.4125 -5.0903422e-09 7949.9069)
(45743.307 -3514.705 3.9768299e-11 -3511.7509 0 7678.4648)
(43647.102 -1382.439 -1.5907319e-10 -3332.5194 0 7329.924)
(41084.122 753.02203 -7.9536597e-11 -3107.6501 5.0903422e-09 6904.8131)
(38052.372 2896.4357 -1.193049e-10 -2813.1588 -2.5451711e-09 6407.1297)
(34539.618 5127.5185 -1.3918905e-10 -2336.6575 -5.0903422e-09 5855.0837)
(30483.441 7862.2911 -7.9536597e-11 -1315.3377 -5.0903422e-09 5303.2915)
(25683.209 12687.952 -1.5907319e-10 882.79164 0 4830.182)
(18688.196 25507.264 -1.5907319e-10 -1691.8017 7.6355133e-09 3090.2536)
(10928.255 41374.215 -1.5907319e-10 -58554.141 7.6355133e-09 -8659.2521)
(233827.34 -109544.37 -1.4913112e-11 20496.8 -4.7224855e-11 46240.752)
(205335.98 -99409.172 2.9826224e-11 -15918.86 -9.9420747e-11 34439.476)
(182187.69 -93074.148 0 -16212.422 -1.5907319e-10 30177.322)
(160377.71 -87981.619 1.9884149e-11 -14228.677 9.5443917e-10 26572.552)
(139958.71 -83598.704 7.9536597e-11 -12340.166 -1.5907319e-10 23203.372)
(120830.11 -79419.456 0 -10685.382 -3.1814639e-10 20026.315)
(102959.88 -75337.972 0 -9173.6192 0 17052.047)
(86317.165 -71339.005 3.9768299e-11 -7772.1721 -6.3629278e-10 14280.908)
(70869.09 -67427.199 -1.193049e-10 -6470.8154 -1.2725856e-09 11708.777)
(56579.762 -63609.464 7.9536597e-11 -5265.2496 0 9329.9114)
(43410.566 -59891.909 3.9768299e-11 -4152.2232 -6.3629278e-10 7137.8805)
(31320.717 -56279.363 7.9536597e-11 -3128.5138 -8.9080989e-09 5125.8552)
(20267.719 -52775.339 7.9536597e-11 -2190.7966 -1.2725856e-09 3286.7131)
(10207.96 -49382.023 -3.9768299e-10 -1335.6404 -3.8177567e-09 1613.149)
(1097.1733 -46100.306 -3.1814639e-10 -559.56264 6.3629278e-09 97.747384)
(-7108.9783 -42929.801 1.5907319e-10 140.94692 -1.2725856e-09 -1266.9148)
(-14454.473 -39868.907 -3.1814639e-10 769.37002 -3.8177567e-09 -2488.2006)
(-20982.393 -36914.871 -1.5907319e-10 1329.1382 -5.0903422e-09 -3573.319)
(-26734.544 -34063.885 -2.3860979e-10 1823.5836 -1.2725856e-09 -4529.2656)
(-31751.007 -31311.187 0 2255.9215 5.0903422e-09 -5362.7427)
(-36069.83 -28651.185 -3.9768299e-11 2629.2098 0 -6080.1127)
(-39726.687 -26077.595 0 2946.336 -2.5451711e-09 -6687.3365)
(-42754.674 -23583.591 3.9768299e-11 3209.9875 2.5451711e-09 -7189.943)
(-45184.087 -21161.949 -3.9768299e-11 3422.6559 -1.5271027e-08 -7592.9875)
(-47042.324 -18805.238 3.9768299e-11 3586.6029 5.0903422e-09 -7901.0402)
(-48353.803 -16506.05 7.9536597e-11 3703.8567 0 -8118.1721)
(-49139.979 -14257.341 -4.7721958e-10 3776.0446 7.6355133e-09 -8247.9881)
(-49419.414 -12052.642 -2.3860979e-10 3804.2963 2.5451711e-09 -8293.6578)
(-49207.806 -9884.9101 -1.193049e-10 3789.4978 0 -8257.8742)
(-48517.678 -7744.4911 0 3732.9408 -7.6355133e-09 -8142.6795)
(-47357.659 -5617.9264 3.9768299e-11 3636.8819 -7.6355133e-09 -7949.2321)
(-45731.937 -3491.6522 -7.9536597e-11 3503.4235 -1.2725856e-08 -7677.9115)
(-43640.959 -1359.6429 -3.9768299e-11 3331.473 -2.5451711e-09 -7328.9975)
(-41083.083 774.58474 7.9536597e-11 3112.5414 -2.290654e-08 -6903.7348)
(-38054.9 2916.2182 7.9536597e-11 2817.2198 5.0903422e-09 -6406.8509)
(-34543.574 5145.9335 -1.9884149e-11 2333.7731 5.0903422e-09 -5856.3275)
(-30486.931 7880.3059 3.9768299e-11 1306.4794 0 -5305.5366)
(-25687.158 12705.613 0 -891.8301 -1.0180684e-08 -4832.5432)
(-18693.474 25523.107 9.9420747e-11 1684.2949 -1.2725856e-08 -3092.578)
(-10931.334 41384.692 -1.9884149e-11 58537.398 -2.5451711e-09 8655.6479)
(590512.6 -28452.154 3.9768299e-11 -44895.058 -6.9594523e-11 99203.189)
(603073.27 -44525.627 2.3860979e-10 -43069.374 3.9768299e-11 101818.89)
(540558.39 -42799.192 3.1814639e-10 -45611.262 3.9768299e-10 89990.386)
(478134.03 -42018.901 3.9768299e-10 -40458.143 6.3629278e-10 79577.433)
(417293.9 -40717.109 6.3629278e-10 -35376.745 7.9536597e-10 69439.482)
(360016.4 -39348.49 0 -30571.01 0 59899.163)
(306466.04 -37969.011 1.5907319e-10 -26096.768 3.1814639e-10 50976.232)
(256600.95 -36597.076 1.5907319e-10 -21934.793 -1.2725856e-09 42666.575)
(210325.77 -35236.457 3.1814639e-10 -18072.958 6.3629278e-10 34955.057)
(167531.79 -33888.577 4.7721958e-10 -14501.125 1.2725856e-09 27823.758)
(128102.06 -32554.282 9.5443917e-10 -11209.399 0 21253.211)
(91913.119 -31234.197 6.3629278e-10 -8187.5336 -1.2725856e-09 15222.834)
(58836.536 -29928.776 1.2725856e-09 -5424.896 1.2725856e-09 9711.2073)
(28740.45 -28638.311 1.2725856e-09 -2910.5765 1.2725856e-09 4696.3406)
(1491.1724 -27362.929 9.5443917e-10 -633.50842 2.5451711e-09 155.9389)
(-23045.275 -26102.594 1.1135124e-09 1417.3994 5.0903422e-09 -3932.3409)
(-45001.628 -24857.11 0 3253.1418 -2.5451711e-09 -7590.6339)
(-64507.979 -23626.124 3.1814639e-10 4884.4959 0 -10840.633)
(-81690.421 -22409.14 6.3629278e-10 6321.915 -1.145327e-08 -13703.365)
(-96669.866 -21205.527 7.9536597e-10 7575.426 0 -16198.989)
(-109560.95 -20014.542 1.5907319e-10 8654.5438 0 -18346.62)
(-120471.16 -18835.344 3.1814639e-10 9568.1945 7.6355133e-09 -20164.175)
(-129500.02 -17667.033 0 10324.652 5.0903422e-09 -21668.248)
(-136738.57 -16508.646 4.7721958e-10 10931.501 -7.6355133e-09 -22874.012)
(-142268.92 -15359.243 1.1135124e-09 11395.584 2.5451711e-09 -23795.151)
(-146163.98 -14217.884 1.2725856e-09 11723.019 0 -24443.812)
(-148487.67 -13083.96 1.5907319e-10 11919.093 -5.0903422e-09 -24830.651)
(-149295.66 -11957.223 6.3629278e-10 11988.24 -7.6355133e-09 -24964.985)
(-148636.06 -10837.256 0 11934.113 -7.6355133e-09 -24854.899)
(-146548.2 -9722.0286 3.1814639e-10 11759.806 -7.6355133e-09 -24506.98)
(-143058.36 -8606.9316 3.9768299e-10 11468.091 -5.0903422e-09 -23925.504)
(-138176.21 -7487.1447 6.3629278e-10 11060.731 -7.6355133e-09 -23111.906)
(-131898.26 -6362.9252 7.9536597e-10 10536.929 -7.6355133e-09 -22065.696)
(-124219.47 -5243.4514 -4.7721958e-10 9890.7028 -1.0180684e-08 -20787.049)
(-115150.81 -4149.7355 3.9768299e-10 9101.8384 5.0903422e-09 -19281.63)
(-104781.59 -3138.5233 1.5907319e-10 8120.299 5.0903422e-09 -17574.781)
(-93876.727 -2489.6736 7.9536597e-11 6849.8156 1.7816198e-08 -15823.075)
(-85862.443 -2922.287 -1.5907319e-10 6752.9198 -5.0903422e-09 -14383.55)
(-109458.57 -10604.757 3.1814639e-10 12210.981 -5.0903422e-09 -17681.38)
(-154304.26 6967.3292 3.9768299e-10 149441.9 0 -884.06549)
)
;

boundaryField
{
    left
    {
        type            calculated;
        value           nonuniform List<symmTensor> 4((-746296.35 -61726.358 0 7475.6597 0 -134331.03) (-215404.66 -90698.419 0 -47867.702 0 -47867.702) (215261.13 -90687.197 0 47835.807 0 47835.807) (746149.62 -61708.391 0 -7476.9196 0 134304.13));
    }
    right
    {
        type            calculated;
        value           nonuniform List<symmTensor> 4((25535.393 5768.9878 0 -314593.32 0 -52555.987) (9019.851 8673.7295 0 -111029.62 0 -18547.23) (-9017.7287 8673.7624 0 111004.12 0 18542.979) (-25535.974 5769.0251 0 314600.34 0 52557.157));
    }
    top
    {
        type            calculated;
        value           nonuniform List<symmTensor> 
40
(
(728955.44 -847.82596 0 -60321.775 0 121569.76)
(792897.4 -1623.9784 0 -65541.323 0 132246.56)
(716578.3 -2582.6988 0 -59171.901 0 119528.44)
(635442.52 -3576.7676 0 -52418.699 0 106004.33)
(554674.74 -4551.4491 0 -45703.772 0 92540.176)
(478386.54 -5492.9445 0 -39366.316 0 79821.859)
(407027.99 -6393.7204 0 -33443.079 0 67924.53)
(340583.52 -7247.7748 0 -27932.359 0 56845.665)
(278929.66 -8049.8441 0 -22823.495 0 46564.757)
(221920.98 -8795.39 0 -18103.969 0 37057.639)
(169400.79 -9480.6473 0 -13760.305 0 28298.27)
(121203.74 -10102.658 0 -9778.2938 0 20259.171)
(77157.903 -10659.287 0 -6143.1713 0 12911.769)
(37086.786 -11149.222 0 -2839.796 0 6226.7254)
(811.48295 -11571.964 0 147.16374 0 174.2994)
(-31847.289 -11927.794 0 2833.0545 0 -5275.3154)
(-61067.109 -12217.735 0 5233.0578 0 -10151.646)
(-87021.998 -12443.508 0 7362.0307 0 -14483.63)
(-109880.58 -12607.462 0 9234.3477 0 -18299.316)
(-129804.54 -12712.518 0 10863.768 0 -21625.595)
(-146947.09 -12762.09 0 12263.307 0 -24487.961)
(-161451.86 -12760.011 0 13445.138 0 -26910.312)
(-173451.79 -12710.452 0 14420.507 0 -28914.778)
(-183068.4 -12617.845 0 15199.66 0 -30521.589)
(-190411.22 -12486.801 0 15791.804 0 -31748.985)
(-195577.36 -12322.035 0 16205.072 0 -32613.143)
(-198651.82 -12128.29 0 16446.547 0 -33128.232)
(-199708.87 -11910.264 0 16522.381 0 -33306.635)
(-198813.29 -11672.541 0 16437.898 0 -33159.163)
(-196018.62 -11419.525 0 16197.456 0 -32694.758)
(-191360.28 -11155.389 0 15803.874 0 -31919.347)
(-184849.44 -10884.039 0 15257.931 0 -30834.82)
(-176478.27 -10609.105 0 14558.801 0 -29439.903)
(-166239.69 -10333.916 0 13705.695 0 -27733.453)
(-154164.27 -10061.465 0 12700.892 0 -25720.614)
(-140479.39 -9793.7667 0 11562.645 0 -23439.408)
(-126924.69 -9526.7251 0 10431.827 0 -21180.52)
(-121534.98 -9206.1977 0 9959.8609 0 -20286.385)
(-182898.97 -8577.1852 0 14899.431 0 -30545.371)
(-321349.06 -5694.5101 0 26088.924 0 -53683.661)
)
;
    }
    bottom
    {
        type            calculated;
        value           nonuniform List<symmTensor> 
40
(
(-729064.87 -847.60862 0 60331.043 0 -121587.97)
(-793026.86 -1623.9057 0 65552.285 0 -132268.1)
(-716715.68 -2582.6953 0 59183.531 0 -119551.3)
(-635583.62 -3576.7858 0 52430.64 0 -106027.81)
(-554815.85 -4551.4748 0 45715.709 0 -92563.663)
(-478525.7 -5492.9744 0 39378.081 0 -79845.022)
(-407163.86 -6393.7537 0 33454.558 0 -67947.146)
(-340715.02 -7247.8114 0 27943.461 0 -56867.557)
(-279055.79 -8049.8836 0 22834.134 0 -46585.756)
(-222040.88 -8795.4323 0 18114.072 0 -37077.602)
(-169513.61 -9480.6917 0 13769.8 0 -28317.057)
(-121308.83 -10102.704 0 9787.1252 0 -20276.674)
(-77254.656 -10659.334 0 6151.2878 0 -12927.885)
(-37174.783 -11149.27 0 2847.1628 0 -6241.3856)
(-890.36281 -11572.011 0 -140.57677 0 -187.44356)
(31777.694 -11927.839 0 -2827.2607 0 5263.7151)
(61006.911 -12217.779 0 -5228.066 0 10141.608)
(86971.126 -12443.548 0 -7357.8337 0 14475.144)
(109838.92 -12607.499 0 -9230.9343 0 18292.361)
(129771.79 -12712.551 0 -10861.112 0 21620.123)
(146922.92 -12762.119 0 -12261.379 0 24483.917)
(161435.77 -12760.035 0 -13443.896 0 26907.613)
(173443.21 -12710.471 0 -14419.9 0 28913.329)
(183066.61 -12617.859 0 -15199.626 0 30521.27)
(190415.42 -12486.81 0 -15792.275 0 31749.662)
(195586.69 -12322.04 0 -16205.974 0 32614.675)
(198665.4 -12128.29 0 -16447.805 0 33130.473)
(199725.18 -11910.258 0 -16523.865 0 33309.33)
(198829.82 -11672.529 0 -16439.398 0 33161.895)
(196032.34 -11419.512 0 -16198.719 0 32697.022)
(191369.47 -11155.377 0 -15804.754 0 31920.858)
(184855.8 -10884.03 0 -15258.568 0 30835.86)
(176484.1 -10609.088 0 -14559.382 0 29440.857)
(166244.97 -10333.881 0 -13706.219 0 27734.318)
(154165.18 -10061.411 0 -12701.04 0 25720.752)
(140471.95 -9793.7071 0 -11562.086 0 23438.157)
(126912.22 -9526.6799 0 -10430.837 0 21178.432)
(121526.38 -9206.177 0 -9959.1785 0 20284.946)
(182896.19 -8577.1815 0 -14899.216 0 30544.904)
(321344.91 -5694.4989 0 -26088.583 0 53682.969)
)
;
    }
    frontAndBack
    {
        type            empty;
    }
}


// ************************************************************************* //
