/*--------------------------------*- C++ -*----------------------------------*\
| =========                 |                                                 |
| \\      /  F ield         | OpenFOAM: The Open Source CFD Toolbox           |
|  \\    /   O peration     | Version:  2512                                  |
|   \\  /    A nd           | Website:  www.openfoam.com                      |
|    \\/     M anipulation  |                                                 |
\*---------------------------------------------------------------------------*/
FoamFile
{
    version     2.0;
    format      ascii;
    arch        "LSB;label=32;scalar=64";
    class       volScalarField;
    location    "0.1";
    object      sigmaEq;
}
// * * * * * * * * * * * * * * * * * * * * * * * * * * * * * * * * * * * * * //

dimensions      [1 -1 -2 0 0 0 0];

internalField   nonuniform List<scalar> 
160
(
579237.22
592437.3
536790.45
475951.89
416584.78
360768.4
308734.79
260480.25
215980.14
175247.8
138387.39
105710.79
78029.623
57345.967
47477.024
50409.931
61442.218
75122.513
88815.851
101490.4
112747.25
122440.1
130530.81
137029.72
141968.66
145387.65
147328.23
147830.07
146929.29
144655.89
141029.7
136057.23
129733
122048.8
113001.37
102640.13
91618.851
84214.442
111345.93
263328.13
277015.41
264680.97
241572.17
219778.23
200144.24
182108.88
165480.55
150207.63
136275.2
123673.4
112389.68
102405.67
93693.816
86213.392
79906.063
74692.241
70469.572
67114.82
64489.373
62447.434
60844.95
59547.369
58434.959
57405.467
56374.549
55274.844
54054.322
52674.471
51107.618
49334.362
47343.344
45134.98
42726.904
40154.636
37461.732
34695.212
32092.851
31870.018
47881.266
94794.324
276912.63
264564.15
241452.43
219659.45
200028.2
181996.76
165373.4
150106.44
136180.88
123586.72
112311.26
102335.86
93632.69
86160.682
79861.145
74654.136
70437.019
67086.365
64463.515
62422.745
60820.2
59521.589
58407.506
57376.037
56343.217
55242.033
54020.684
52640.52
51073.569
49300.917
47313.169
45113.2
42718.294
40158.478
37471.58
34704.887
32103.252
31889.246
47906.335
94799.524
579115.4
592302.32
536649.24
475808.4
416441.56
360626.93
308596.17
260345.44
215850.05
175123.28
138269.43
105600.75
77930.486
57265.561
47430.473
50400.49
61453.023
75139.675
88832.54
101503.48
112755.29
122442.55
130527.62
137021.18
141955.34
145370.28
147307.62
147807.31
146905.86
144633.8
141011.07
136043.33
129724.37
122044.85
113001.24
102643.08
91622.758
84216.467
111343.73
263333.11
)
;

boundaryField
{
    left
    {
        type            calculated;
        value           nonuniform List<scalar> 4(702012.74 229667.68 229572.96 701875.09);
    }
    right
    {
        type            calculated;
        value           nonuniform List<scalar> 4(308746.71 109945.92 109921.11 308753.6);
    }
    top
    {
        type            calculated;
        value           nonuniform List<scalar> 
40
(
715878.74
778624.57
703644.35
623952.11
544636.76
469738.59
399704.01
334524.75
274091.17
218281.23
166982.23
120126.45
77818.532
41076.198
20053.805
37604.357
63719.793
88250.886
110198.2
129451.66
146068.6
160149.7
171805.45
181144.2
188267.15
193265.81
196221.3
197205.12
196280.06
193498.36
188894.89
182481.2
174250.75
164198.45
152357.09
138952.85
125683.2
120344.36
180058.97
315369.74
)
;
    }
    bottom
    {
        type            calculated;
        value           nonuniform List<scalar> 
40
(
715986.36
778751.89
703779.45
624090.86
544775.52
469875.41
399837.56
334653.97
274215.03
218398.83
167092.61
120228.67
77910.937
41152.584
20056.509
37547.289
63664.051
88202.467
110158.13
129420.01
146045.2
160134.13
171797.18
181142.55
188271.34
193275.01
196234.66
197221.14
196296.3
193511.85
188903.96
182487.49
174256.51
164203.66
152358.02
138945.62
125671.08
120336.01
180056.26
315365.67
)
;
    }
    frontAndBack
    {
        type            empty;
    }
}


// ************************************************************************* //
