/*--------------------------------*- C++ -*----------------------------------*\
| =========                 |                                                 |
| \\      /  F ield         | OpenFOAM: The Open Source CFD Toolbox           |
|  \\    /   O peration     | Version:  2512                                  |
|   \\  /    A nd           | Website:  www.openfoam.com                      |
|    \\/     M anipulation  |                                                 |
\*---------------------------------------------------------------------------*/
FoamFile
{
    version     2.0;
    format      ascii;
    arch        "LSB;label=32;scalar=64";
    class       volScalarField;
    location    "0.5";
    object      p;
}
// * * * * * * * * * * * * * * * * * * * * * * * * * * * * * * * * * * * * * //

dimensions      [0 2 -2 0 0 0 0];

internalField   nonuniform List<scalar> 
400
(
1.72981e-08
-0.00505563
-0.0114359
-0.0162757
-0.0179045
-0.0156138
-0.00934151
0.000513183
0.0132171
0.0277982
0.0431212
0.0579619
0.0710916
0.0813842
0.0879485
0.0902871
0.0884699
0.0833297
0.076724
0.071616
0.00497314
-0.000224476
-0.00590478
-0.00980541
-0.0108917
-0.00868872
-0.00315505
0.00538689
0.0163343
0.0288768
0.0420584
0.0548423
0.0661866
0.0751389
0.0809497
0.0832034
0.0819454
0.0777639
0.071875
0.0666294
0.0116712
0.00515919
-0.000953905
-0.00460531
-0.00548354
-0.00343975
0.00148361
0.00899025
0.0185669
0.0295308
0.0410722
0.0523043
0.0623257
0.0703005
0.075554
0.0776804
0.0766284
0.0726591
0.066286
0.059685
0.017576
0.00903671
0.00154646
-0.00259537
-0.00364467
-0.00176517
0.00287831
0.00995717
0.0189821
0.0293291
0.040262
0.0509647
0.0605882
0.0683177
0.0734552
0.075518
0.0743041
0.0697636
0.0618859
0.0531516
0.0210048
0.01023
0.00103257
-0.00387153
-0.00518237
-0.00333899
0.00136454
0.0085403
0.0176858
0.0281933
0.0393529
0.0503662
0.0603786
0.0685316
0.0740391
0.076284
0.0748814
0.069494
0.059715
0.0485539
0.0207422
0.00769394
-0.0032641
-0.00892821
-0.0103813
-0.00831473
-0.00315236
0.00464582
0.0145444
0.0259275
0.0380833
0.0501989
0.0613749
0.0706649
0.0771437
0.0800112
0.0786629
0.0724682
0.060673
0.0469375
0.0156973
0.000372933
-0.0122847
-0.0185439
-0.0198621
-0.0171861
-0.0110766
-0.00207499
0.00924006
0.0222333
0.0361781
0.05023
0.0634215
0.0746838
0.0829078
0.087055
0.0862446
0.0795033
0.0657053
0.0492592
0.00471834
-0.0128766
-0.0270892
-0.0336312
-0.0343791
-0.0305696
-0.0229197
-0.0120619
0.00137986
0.0167533
0.0333208
0.0502077
0.066371
0.0805986
0.0915551
0.097899
0.0983877
0.091599
0.0759312
0.056633
-0.013548
-0.0333884
-0.0489052
-0.0552357
-0.0547823
-0.0491453
-0.0392336
-0.025781
-0.00944981
0.00910923
0.0291719
0.0498571
0.0700623
0.0884289
0.103362
0.113144
0.116049
0.11003
0.0928058
0.0705439
-0.0408038
-0.0628037
-0.0791956
-0.0845493
-0.0819863
-0.0735958
-0.0605328
-0.0436416
-0.0236035
-0.00102848
0.0234225
0.0489156
0.0743362
0.0982058
0.118657
0.133522
0.140437
0.136468
0.118311
0.0930884
-0.0793039
-0.103223
-0.119733
-0.122901
-0.116896
-0.10449
-0.0871577
-0.0658549
-0.0412416
-0.0138213
0.0158913
0.0472011
0.0790722
0.10998
0.137815
0.159906
0.173073
0.173125
0.1552
0.127297
-0.132197
-0.157437
-0.172683
-0.171707
-0.160265
-0.142095
-0.119067
-0.0922262
-0.0621361
-0.0290896
0.00666747
0.0447171
0.0842506
0.123841
0.16124
0.19329
0.215824
0.222916
0.207326
0.177622
-0.204179
-0.229315
-0.2407
-0.232346
-0.212453
-0.186083
-0.155544
-0.121882
-0.085427
-0.0461039
-0.00371844
0.041779
0.0900228
0.139922
0.189321
0.234719
0.270892
0.289638
0.280158
0.25077
-0.302845
-0.324492
-0.32699
-0.305872
-0.27301
-0.235115
-0.194826
-0.152963
-0.109378
-0.063396
-0.0141558
0.0390999
0.0967337
0.158341
0.222271
0.285077
0.340665
0.378128
0.38158
0.35729
-0.441215
-0.4514
-0.435262
-0.39249
-0.340054
-0.286299
-0.233713
-0.182379
-0.131247
-0.0787101
-0.0229642
0.0377307
0.104801
0.178993
0.259806
0.344653
0.427312
0.494261
0.52295
0.51424
-0.640488
-0.621979
-0.569134
-0.490578
-0.409428
-0.334653
-0.267331
-0.205811
-0.147457
-0.0892761
-0.0282204
0.0386997
0.114313
0.201065
0.300508
0.4123
0.531813
0.6442
0.719331
0.747383
-0.934558
-0.851877
-0.728997
-0.593583
-0.472691
-0.372119
-0.288903
-0.217982
-0.154148
-0.0925266
-0.0285736
0.0421097
0.123993
0.221744
0.340077
0.482921
0.650467
0.830897
0.989276
1.09498
-1.42357
-1.16956
-0.901329
-0.679769
-0.510905
-0.384401
-0.288486
-0.212505
-0.147691
-0.0870073
-0.0244838
0.0455091
0.128976
0.233016
0.366467
0.539912
0.763795
1.04367
1.36675
1.6666
-2.48525
-1.63823
-1.04377
-0.703162
-0.491565
-0.350749
-0.25389
-0.183067
-0.125746
-0.0732397
-0.0188979
0.0433313
0.12018
0.22051
0.357298
0.549668
0.826015
1.24318
1.92212
2.85197
-4.49085
-2.26487
-1.15018
-0.679173
-0.434201
-0.289546
-0.201042
-0.142471
-0.0978295
-0.0575368
-0.0150305
0.03543
0.100409
0.18949
0.318991
0.517675
0.83748
1.41016
2.63838
4.96004
)
;

boundaryField
{
    movingWall
    {
        type            zeroGradient;
    }
    fixedWalls
    {
        type            zeroGradient;
    }
    frontAndBack
    {
        type            empty;
    }
}


// ************************************************************************* //
