/*--------------------------------*- C++ -*----------------------------------*\
| =========                 |                                                 |
| \\      /  F ield         | OpenFOAM: The Open Source CFD Toolbox           |
|  \\    /   O peration     | Version:  2512                                  |
|   \\  /    A nd           | Website:  www.openfoam.com                      |
|    \\/     M anipulation  |                                                 |
\*---------------------------------------------------------------------------*/
FoamFile
{
    version     2.0;
    format      ascii;
    arch        "LSB;label=32;scalar=64";
    class       surfaceScalarField;
    location    "0.5";
    object      phi;
}
// * * * * * * * * * * * * * * * * * * * * * * * * * * * * * * * * * * * * * //

dimensions      [0 3 -1 0 0 0 0];

oriented        oriented;

internalField   nonuniform List<scalar> 
760
(
6.91569e-09
-6.91584e-09
-3.20151e-08
3.89308e-08
-1.22685e-07
9.06701e-08
-2.50706e-07
1.28021e-07
-3.97455e-07
1.46749e-07
-5.44959e-07
1.47503e-07
-6.77573e-07
1.32614e-07
-7.82637e-07
1.05064e-07
-8.50704e-07
6.80668e-08
-8.75663e-07
2.49593e-08
-8.5491e-07
-2.07532e-08
-7.89593e-07
-6.53164e-08
-6.84895e-07
-1.04698e-07
-5.5022e-07
-1.34675e-07
-3.99135e-07
-1.51085e-07
-2.4883e-07
-1.50305e-07
-1.18832e-07
-1.29997e-07
-2.85199e-08
-9.03123e-08
8.44482e-09
-3.69648e-08
8.44483e-09
-3.76894e-08
3.07736e-08
-1.84529e-07
1.85771e-07
-4.37601e-07
3.43742e-07
-7.66892e-07
4.57312e-07
-1.13305e-06
5.12907e-07
-1.49627e-06
5.10727e-07
-1.82071e-06
4.57052e-07
-2.07668e-06
3.61029e-07
-2.24178e-06
2.33165e-07
-2.30157e-06
8.47525e-08
-2.25012e-06
-7.22005e-08
-2.09054e-06
-2.24894e-07
-1.83545e-06
-3.59791e-07
-1.50711e-06
-4.63014e-07
-1.13691e-06
-5.21288e-07
-7.63649e-07
-5.23565e-07
-4.30169e-07
-4.63478e-07
-1.7744e-07
-3.43041e-07
-3.44364e-08
-1.79968e-07
-2.59916e-08
-9.31231e-08
1.23897e-07
-3.58155e-07
4.50802e-07
-7.65484e-07
7.51071e-07
-1.2689e-06
9.60726e-07
-1.81433e-06
1.05834e-06
-2.34776e-06
1.04416e-06
-2.82031e-06
9.29594e-07
-3.19125e-06
7.31971e-07
-3.42977e-06
4.71684e-07
-3.51599e-06
1.7098e-07
-3.44182e-06
-1.46377e-07
-3.21159e-06
-4.5512e-07
-2.84268e-06
-7.28705e-07
-2.36553e-06
-9.40159e-07
-1.82288e-06
-1.06394e-06
-1.26739e-06
-1.07905e-06
-7.57265e-07
-9.73608e-07
-3.49188e-07
-7.51118e-07
-8.86295e-08
-4.40526e-07
-1.14621e-07
-1.45216e-07
2.69113e-07
-5.2551e-07
8.31096e-07
-1.08129e-06
1.30685e-06
-1.74642e-06
1.62586e-06
-2.4523e-06
1.76422e-06
-3.13337e-06
1.72523e-06
-3.73148e-06
1.52771e-06
-4.19864e-06
1.19913e-06
-4.49863e-06
7.71681e-07
-4.6081e-06
2.80445e-07
-4.51731e-06
-2.37168e-07
-4.23097e-06
-7.41459e-07
-3.76892e-06
-1.19075e-06
-3.16644e-06
-1.54264e-06
-2.47365e-06
-1.75673e-06
-1.75334e-06
-1.79936e-06
-1.07675e-06
-1.6502e-06
-5.16818e-07
-1.31105e-06
-1.40008e-07
-8.17337e-07
-2.54629e-07
-1.93453e-07
4.62566e-07
-6.84472e-07
1.32212e-06
-1.38417e-06
2.00655e-06
-2.20446e-06
2.44615e-06
-3.06121e-06
2.62097e-06
-3.87818e-06
2.54219e-06
-4.58989e-06
2.23942e-06
-5.14344e-06
1.75267e-06
-5.49931e-06
1.12755e-06
-5.63192e-06
4.13058e-07
-5.53016e-06
-3.38933e-07
-5.19814e-06
-1.07348e-06
-4.65622e-06
-1.73267e-06
-3.94191e-06
-2.25695e-06
-3.1101e-06
-2.58854e-06
-2.23196e-06
-2.6775e-06
-1.39159e-06
-2.49057e-06
-6.80254e-07
-2.02239e-06
-1.88656e-07
-1.30893e-06
-4.43285e-07
-2.39976e-07
7.02541e-07
-8.39492e-07
1.92163e-06
-1.68066e-06
2.84771e-06
-2.65219e-06
3.41768e-06
-3.6537e-06
3.62249e-06
-4.59871e-06
3.4872e-06
-5.41593e-06
3.05665e-06
-6.04946e-06
2.3862e-06
-6.45822e-06
1.53632e-06
-6.61551e-06
5.70349e-07
-6.50891e-06
-4.45539e-07
-6.14095e-06
-1.44143e-06
-5.5306e-06
-2.34302e-06
-4.7151e-06
-3.07244e-06
-3.75179e-06
-3.55185e-06
-2.71873e-06
-3.71056e-06
-1.71317e-06
-3.49613e-06
-8.46811e-07
-2.88875e-06
-2.37686e-07
-1.91806e-06
-6.80972e-07
-2.87157e-07
9.89699e-07
-9.95981e-07
2.63046e-06
-1.97803e-06
3.82977e-06
-3.09741e-06
4.53705e-06
-4.23709e-06
4.76218e-06
-5.30129e-06
4.55139e-06
-6.21479e-06
3.97015e-06
-6.92097e-06
3.09238e-06
-7.37924e-06
1.99458e-06
-7.56301e-06
7.54125e-07
-7.45877e-06
-5.49779e-07
-7.06646e-06
-1.83375e-06
-6.40146e-06
-3.00803e-06
-5.49784e-06
-3.97606e-06
-4.41233e-06
-4.63735e-06
-3.22773e-06
-4.89516e-06
-2.05399e-06
-4.66987e-06
-1.02518e-06
-3.91755e-06
-2.90638e-07
-2.6526e-06
-9.7161e-07
-3.3723e-07
1.32693e-06
-1.15889e-06
3.45211e-06
-2.28199e-06
4.95287e-06
-3.54385e-06
5.79891e-06
-4.81089e-06
6.02921e-06
-5.97987e-06
5.72037e-06
-6.97468e-06
4.96497e-06
-7.74121e-06
3.85891e-06
-8.24217e-06
2.49554e-06
-8.453e-06
9.64954e-07
-8.35959e-06
-6.43186e-07
-7.95828e-06
-2.23505e-06
-7.25833e-06
-3.70798e-06
-6.28681e-06
-4.94758e-06
-5.09543e-06
-5.82874e-06
-3.76775e-06
-6.22284e-06
-2.42453e-06
-6.01309e-06
-1.22366e-06
-5.11843e-06
-3.51026e-07
-3.52524e-06
-1.32264e-06
-3.92465e-07
1.71939e-06
-1.33265e-06
4.39229e-06
-2.59594e-06
6.21617e-06
-3.98974e-06
7.1927e-06
-5.36464e-06
7.40411e-06
-6.61347e-06
6.9692e-06
-7.66392e-06
6.01542e-06
-8.46921e-06
4.6642e-06
-8.99941e-06
3.02574e-06
-9.23473e-06
1.20027e-06
-9.16159e-06
-7.1632e-07
-8.77191e-06
-2.62474e-06
-8.06588e-06
-4.41401e-06
-7.05864e-06
-5.95482e-06
-5.79043e-06
-7.09694e-06
-4.33907e-06
-7.6742e-06
-2.83153e-06
-7.52064e-06
-1.44958e-06
-6.50037e-06
-4.22411e-07
-4.55241e-06
-1.74505e-06
-4.55692e-07
2.17509e-06
-1.52186e-06
5.45846e-06
-2.92102e-06
7.61533e-06
-4.42658e-06
8.69827e-06
-5.87558e-06
8.85311e-06
-7.16283e-06
8.25645e-06
-8.22699e-06
7.07958e-06
-9.03544e-06
5.47265e-06
-9.57113e-06
3.56142e-06
-9.82289e-06
1.45203e-06
-9.77956e-06
-7.59645e-07
-9.42824e-06
-2.97606e-06
-8.75703e-06
-5.08522e-06
-7.76316e-06
-6.94869e-06
-6.46672e-06
-8.39338e-06
-4.92953e-06
-9.21139e-06
-3.27609e-06
-9.17408e-06
-1.7092e-06
-8.06725e-06
-5.08737e-07
-5.75287e-06
-2.25378e-06
-5.31194e-07
2.70628e-06
-1.73236e-06
6.65962e-06
-3.25603e-06
9.139e-06
-4.83726e-06
1.02795e-05
-6.30481e-06
1.03207e-05
-7.5653e-06
9.51694e-06
-8.57881e-06
8.0931e-06
-9.33588e-06
6.22972e-06
-9.83928e-06
4.06482e-06
-1.00913e-05
1.70403e-06
-1.00859e-05
-7.65063e-07
-9.8057e-06
-3.25622e-06
-9.22431e-06
-5.66661e-06
-8.31459e-06
-7.85841e-06
-7.06565e-06
-9.64232e-06
-5.50881e-06
-1.07682e-05
-3.75103e-06
-1.09319e-05
-2.00746e-06
-9.81083e-06
-6.14917e-07
-7.14541e-06
-2.8687e-06
-6.26067e-07
3.33235e-06
-1.97239e-06
8.00595e-06
-3.59612e-06
1.07627e-05
-5.19143e-06
1.18748e-05
-6.59026e-06
1.17195e-05
-7.72674e-06
1.06534e-05
-8.59668e-06
8.96304e-06
-9.22472e-06
6.85775e-06
-9.64105e-06
4.48115e-06
-9.86649e-06
1.92947e-06
-9.9035e-06
-7.2805e-07
-9.73193e-06
-3.42779e-06
-9.30963e-06
-6.08891e-06
-8.57988e-06
-8.58816e-06
-7.4891e-06
-1.07331e-05
-6.01913e-06
-1.22382e-05
-4.23573e-06
-1.27153e-05
-2.34707e-06
-1.16995e-05
-7.47662e-07
-8.74482e-06
-3.61636e-06
-7.52166e-07
4.08451e-06
-2.25274e-06
9.50652e-06
-3.92761e-06
1.24376e-05
-5.43501e-06
1.33822e-05
-6.63315e-06
1.29176e-05
-7.50778e-06
1.1528e-05
-8.10854e-06
9.5638e-06
-8.50542e-06
7.25463e-06
-8.76249e-06
4.73822e-06
-8.923e-06
2.08999e-06
-9.00103e-06
-6.5002e-07
-8.97657e-06
-3.45226e-06
-8.79374e-06
-6.27175e-06
-8.36441e-06
-9.01749e-06
-7.58282e-06
-1.15147e-05
-6.3598e-06
-1.34612e-05
-4.68599e-06
-1.43891e-05
-2.72557e-06
-1.36599e-05
-9.16547e-07
-1.05538e-05
-4.53291e-06
-9.2831e-07
5.01282e-06
-2.58264e-06
1.11608e-05
-4.21282e-06
1.40678e-05
-5.46673e-06
1.46361e-05
-6.27227e-06
1.37232e-05
-6.70112e-06
1.19569e-05
-6.87617e-06
9.73886e-06
-6.92064e-06
7.2991e-06
-6.93407e-06
4.75165e-06
-6.98219e-06
2.13811e-06
-7.09214e-06
-5.40073e-07
-7.24826e-06
-3.29613e-06
-7.38738e-06
-6.13263e-06
-7.3955e-06
-9.00937e-06
-7.11292e-06
-1.17973e-05
-6.36131e-06
-1.42128e-05
-5.01344e-06
-1.57369e-05
-3.12653e-06
-1.55468e-05
-1.13459e-06
-1.25458e-05
-5.66749e-06
-1.17899e-06
6.19181e-06
-2.95119e-06
1.2933e-05
-4.35108e-06
1.54677e-05
-5.089e-06
1.5374e-05
-5.23738e-06
1.38715e-05
-4.99563e-06
1.17151e-05
-4.57289e-06
9.31611e-06
-4.14253e-06
6.86875e-06
-3.83098e-06
4.4401e-06
-3.71901e-06
2.02614e-06
-3.84435e-06
-4.14731e-07
-4.20036e-06
-2.94013e-06
-4.72855e-06
-5.60444e-06
-5.30605e-06
-8.43187e-06
-5.73385e-06
-1.13695e-05
-5.74175e-06
-1.42049e-05
-5.04317e-06
-1.64355e-05
-3.49409e-06
-1.70959e-05
-1.41348e-06
-1.46264e-05
-7.08098e-06
-1.515e-06
7.70681e-06
-3.26808e-06
1.46861e-05
-4.08631e-06
1.62859e-05
-3.91104e-06
1.51988e-05
-3.071e-06
1.30315e-05
-1.92549e-06
1.05696e-05
-7.58764e-07
8.14938e-06
2.31171e-07
5.87881e-06
9.16103e-07
3.75517e-06
1.21831e-06
1.72393e-06
1.09768e-06
-2.94096e-07
5.48491e-07
-2.39094e-06
-3.9224e-07
-4.66371e-06
-1.62358e-06
-7.20052e-06
-2.94767e-06
-1.00454e-05
-4.03574e-06
-1.31169e-05
-4.42901e-06
-1.60423e-05
-3.66697e-06
-1.78579e-05
-1.73816e-06
-1.65552e-05
-8.81914e-06
-1.88262e-06
9.58943e-06
-3.21424e-06
1.60178e-05
-2.80481e-06
1.58765e-05
-1.17262e-06
1.35666e-05
9.87314e-07
1.08716e-05
3.18687e-06
8.37007e-06
5.13293e-06
6.20332e-06
6.66281e-06
4.34893e-06
7.69021e-06
2.72777e-06
8.16819e-06
1.24595e-06
8.06805e-06
-1.93959e-07
7.37177e-06
-1.69467e-06
6.07795e-06
-3.36989e-06
4.22525e-06
-5.34782e-06
1.94029e-06
-7.76042e-06
-4.84463e-07
-1.06921e-05
-2.49349e-06
-1.40332e-05
-3.23821e-06
-1.71132e-05
-2.0111e-06
-1.77823e-05
-1.08302e-05
-2.09776e-06
1.16872e-05
-1.84612e-06
1.57661e-05
8.939e-07
1.31365e-05
4.53502e-06
9.92545e-06
8.12517e-06
7.28143e-06
1.12513e-05
5.24393e-06
1.37604e-05
3.69421e-06
1.56149e-05
2.49447e-06
1.68199e-05
1.52274e-06
1.73857e-05
6.80151e-07
1.73087e-05
-1.16955e-07
1.65635e-05
-9.49488e-07
1.51034e-05
-1.90974e-06
1.28729e-05
-3.11738e-06
9.84675e-06
-4.73423e-06
6.11794e-06
-6.96329e-06
2.0829e-06
-9.9982e-06
-1.22301e-06
-1.38073e-05
-1.9828e-06
-1.70225e-05
-1.2813e-05
-8.8114e-07
1.25683e-05
3.89193e-06
1.0993e-05
1.00859e-05
6.94247e-06
1.55688e-05
4.4426e-06
1.99408e-05
2.90937e-06
2.3268e-05
1.9168e-06
2.57035e-05
1.25867e-06
2.73931e-05
8.04834e-07
2.84463e-05
4.69581e-07
2.89293e-05
1.97202e-07
2.88644e-05
-5.21096e-08
2.82282e-05
-3.13296e-07
2.69458e-05
-6.27346e-07
2.48824e-05
-1.05394e-06
2.1839e-05
-1.69085e-06
1.75753e-05
-2.6996e-06
1.19226e-05
-4.3455e-06
5.22188e-06
-7.10658e-06
-3.08795e-07
-1.14918e-05
-1.31218e-05
1.25683e-05
2.35614e-05
3.05038e-05
3.49464e-05
3.78558e-05
3.97726e-05
4.10313e-05
4.18361e-05
4.23057e-05
4.25029e-05
4.24508e-05
4.21375e-05
4.15101e-05
4.04562e-05
3.87654e-05
3.60658e-05
3.17203e-05
2.46137e-05
1.31218e-05
)
;

boundaryField
{
    movingWall
    {
        type            calculated;
        value           uniform 0;
    }
    fixedWalls
    {
        type            calculated;
        value           uniform 0;
    }
    frontAndBack
    {
        type            empty;
    }
}


// ************************************************************************* //
