/*--------------------------------*- C++ -*----------------------------------*\
| =========                 |                                                 |
| \\      /  F ield         | OpenFOAM: The Open Source CFD Toolbox           |
|  \\    /   O peration     | Version:  2512                                  |
|   \\  /    A nd           | Website:  www.openfoam.com                      |
|    \\/     M anipulation  |                                                 |
\*---------------------------------------------------------------------------*/
FoamFile
{
    version     2.0;
    format      ascii;
    arch        "LSB;label=32;scalar=64";
    class       volVectorField;
    location    "0.5";
    object      U;
}
// * * * * * * * * * * * * * * * * * * * * * * * * * * * * * * * * * * * * * //

dimensions      [0 1 -1 0 0 0 0];

internalField   nonuniform List<vector> 
400
(
(0.000188284 -0.000188733 0)
(-5.16961e-05 2.18615e-05 0)
(-0.0013706 0.000280027 0)
(-0.0036202 0.000458392 0)
(-0.00644346 0.000547341 0)
(-0.00945786 0.000558325 0)
(-0.0123205 0.000505408 0)
(-0.0147457 0.000402689 0)
(-0.0165111 0.000263427 0)
(-0.0174603 0.000100277 0)
(-0.017505 -7.38575e-05 0)
(-0.0166299 -0.00024495 0)
(-0.0148975 -0.000397285 0)
(-0.0124538 -0.00051344 0)
(-0.00953016 -0.000575007 0)
(-0.00643873 -0.000564293 0)
(-0.00355607 -0.000466975 0)
(-0.00128993 -0.000275735 0)
(2.84588e-06 -8.73674e-06 0)
(0.000199764 0.000199411 0)
(-3.05803e-06 3.06517e-05 0)
(-0.00173358 0.00174241 0)
(-0.00578865 0.00365927 0)
(-0.01178 0.00506454 0)
(-0.0189253 0.00577251 0)
(-0.0263992 0.00579167 0)
(-0.0334315 0.00520413 0)
(-0.0393593 0.00412202 0)
(-0.0436572 0.00266969 0)
(-0.0459541 0.000978151 0)
(-0.0460438 -0.000814287 0)
(-0.0438959 -0.00255979 0)
(-0.0396663 -0.0041006 0)
(-0.0337049 -0.00527295 0)
(-0.0265536 -0.00591759 0)
(-0.0189256 -0.00589873 0)
(-0.0116571 -0.00513397 0)
(-0.00562558 -0.00364373 0)
(-0.00161854 -0.00166635 0)
(1.96017e-05 2.93832e-05 0)
(-0.000257899 0.00132494 0)
(-0.00381724 0.00581681 0)
(-0.0106377 0.0102072 0)
(-0.0200011 0.0133478 0)
(-0.0307641 0.0148665 0)
(-0.0418066 0.014756 0)
(-0.0520854 0.0131839 0)
(-0.0606947 0.0104045 0)
(-0.0669125 0.00671517 0)
(-0.0702275 0.00243887 0)
(-0.0703567 -0.00207994 0)
(-0.0672596 -0.00647452 0)
(-0.0611518 -0.0103585 0)
(-0.0525131 -0.0133381 0)
(-0.0420828 -0.0150397 0)
(-0.0308293 -0.0151563 0)
(-0.0198828 -0.0135166 0)
(-0.0104398 -0.0101871 0)
(-0.00366349 -0.00565267 0)
(-0.000225778 -0.00118616 0)
(-0.000477052 0.00371491 0)
(-0.00582351 0.0122889 0)
(-0.0153405 0.0198709 0)
(-0.0278951 0.0250872 0)
(-0.0419517 0.0274552 0)
(-0.0561299 0.0269899 0)
(-0.0691842 0.0239789 0)
(-0.0800444 0.0188586 0)
(-0.0878621 0.0121456 0)
(-0.0920373 0.00440521 0)
(-0.0922356 -0.00375794 0)
(-0.0884036 -0.0117017 0)
(-0.0807842 -0.0187525 0)
(-0.0699291 -0.0242271 0)
(-0.0566985 -0.0274794 0)
(-0.0422348 -0.0279788 0)
(-0.0278959 -0.025422 0)
(-0.0151734 -0.0198837 0)
(-0.00565424 -0.0120334 0)
(-0.000435833 -0.00347479 0)
(-0.000667092 0.00711035 0)
(-0.00770741 0.0210203 0)
(-0.0198411 0.0324511 0)
(-0.0354819 0.0399782 0)
(-0.0526689 0.0431313 0)
(-0.0697612 0.0420287 0)
(-0.0853416 0.0371353 0)
(-0.0982227 0.0291124 0)
(-0.107477 0.01873 0)
(-0.112451 0.00682483 0)
(-0.112776 -0.00571244 0)
(-0.108377 -0.0179373 0)
(-0.0994948 -0.0288574 0)
(-0.0867048 -0.037461 0)
(-0.070933 -0.0427798 0)
(-0.0534471 -0.0439975 0)
(-0.0358102 -0.0406051 0)
(-0.019828 -0.0325968 0)
(-0.00757006 -0.0207163 0)
(-0.000619761 -0.00676263 0)
(-0.000845984 0.0114468 0)
(-0.00953481 0.0319303 0)
(-0.024245 0.0478696 0)
(-0.0429137 0.0579165 0)
(-0.0631305 0.0617464 0)
(-0.0829911 0.0596897 0)
(-0.100928 0.0524669 0)
(-0.115675 0.0410163 0)
(-0.126264 0.0263919 0)
(-0.13202 0.00971611 0)
(-0.13255 -0.0078277 0)
(-0.12775 -0.0249874 0)
(-0.117829 -0.0404395 0)
(-0.103338 -0.0528148 0)
(-0.0852166 -0.0607704 0)
(-0.0648173 -0.0631246 0)
(-0.0438926 -0.0590551 0)
(-0.0245873 -0.0483497 0)
(-0.00951375 -0.0317001 0)
(-0.000800413 -0.0110166 0)
(-0.00102944 0.0167124 0)
(-0.011388 0.0450064 0)
(-0.0286843 0.0661052 0)
(-0.050346 0.0788476 0)
(-0.0734911 0.0832003 0)
(-0.0959576 0.0798366 0)
(-0.11606 0.069831 0)
(-0.132496 0.0544591 0)
(-0.144304 0.0350853 0)
(-0.15082 0.0131202 0)
(-0.151647 -0.00997408 0)
(-0.146643 -0.0326542 0)
(-0.135949 -0.0532721 0)
(-0.12004 -0.0700836 0)
(-0.0998082 -0.0813176 0)
(-0.0766301 -0.0853279 0)
(-0.0524182 -0.0808377 0)
(-0.0296709 -0.0672627 0)
(-0.0116117 -0.0450922 0)
(-0.00099959 -0.0162779 0)
(-0.0012319 0.0229432 0)
(-0.0133461 0.0602952 0)
(-0.0332772 0.0871622 0)
(-0.0578851 0.1027 0)
(-0.0837916 0.10734 0)
(-0.108599 0.102261 0)
(-0.130556 0.0890097 0)
(-0.148392 0.0692652 0)
(-0.161216 0.0447237 0)
(-0.168425 0.0170685 0)
(-0.16964 -0.0119958 0)
(-0.164678 -0.0406784 0)
(-0.153577 -0.0670389 0)
(-0.136672 -0.0889602 0)
(-0.114716 -0.104194 0)
(-0.0890232 -0.110516 0)
(-0.061598 -0.106017 0)
(-0.0352833 -0.0895189 0)
(-0.0139909 -0.0611029 0)
(-0.00123899 -0.0226607 0)
(-0.0014691 0.0302191 0)
(-0.0154885 0.0778919 0)
(-0.0381211 0.111044 0)
(-0.0655665 0.129331 0)
(-0.093923 0.133886 0)
(-0.120606 0.126596 0)
(-0.143887 0.109621 0)
(-0.162628 0.0851167 0)
(-0.1761 0.05512 0)
(-0.183831 0.0215503 0)
(-0.185503 -0.0137123 0)
(-0.180892 -0.0487072 0)
(-0.169899 -0.0812704 0)
(-0.152636 -0.108945 0)
(-0.129602 -0.128976 0)
(-0.101908 -0.138443 0)
(-0.0715272 -0.134582 0)
(-0.0415913 -0.115323 0)
(-0.0167771 -0.0800304 0)
(-0.00154276 -0.0303496 0)
(-0.00176264 0.0386694 0)
(-0.0179111 0.0979312 0)
(-0.0433024 0.137713 0)
(-0.0733435 0.15846 0)
(-0.103589 0.162335 0)
(-0.131362 0.152208 0)
(-0.155099 0.131017 0)
(-0.173939 0.101464 0)
(-0.187441 0.0659194 0)
(-0.195363 0.0264707 0)
(-0.197501 -0.0149292 0)
(-0.193612 -0.0562709 0)
(-0.183425 -0.0952826 0)
(-0.16674 -0.129251 0)
(-0.143651 -0.154925 0)
(-0.11487 -0.168579 0)
(-0.0821281 -0.166338 0)
(-0.048709 -0.14483 0)
(-0.0201037 -0.102238 0)
(-0.00194185 -0.0396038 0)
(-0.00214786 0.0484915 0)
(-0.0207527 0.120582 0)
(-0.0489122 0.167035 0)
(-0.0810686 0.189559 0)
(-0.112248 0.191836 0)
(-0.139852 0.178067 0)
(-0.1627 0.152164 0)
(-0.180411 0.117429 0)
(-0.192993 0.0765232 0)
(-0.200546 0.0315993 0)
(-0.203061 -0.0154622 0)
(-0.200308 -0.0627719 0)
(-0.191825 -0.108125 0)
(-0.177016 -0.148702 0)
(-0.155401 -0.180836 0)
(-0.127026 -0.199938 0)
(-0.093064 -0.200742 0)
(-0.0566735 -0.178042 0)
(-0.0241245 -0.128118 0)
(-0.00248114 -0.0507701 0)
(-0.00268721 0.0599944 0)
(-0.0242334 0.146045 0)
(-0.0550514 0.198691 0)
(-0.0884338 0.221707 0)
(-0.11899 0.221013 0)
(-0.144504 0.20259 0)
(-0.1645 0.171515 0)
(-0.179332 0.131705 0)
(-0.189638 0.086016 0)
(-0.195988 0.0365162 0)
(-0.198646 -0.0151735 0)
(-0.197444 -0.0674967 0)
(-0.191744 -0.118549 0)
(-0.180501 -0.165643 0)
(-0.162497 -0.204881 0)
(-0.136807 -0.230856 0)
(-0.103588 -0.23667 0)
(-0.0653894 -0.214628 0)
(-0.0290285 -0.15804 0)
(-0.00323142 -0.0643131 0)
(-0.00349419 0.0736791 0)
(-0.0286966 0.174545 0)
(-0.061787 0.232019 0)
(-0.094805 0.253351 0)
(-0.122279 0.247739 0)
(-0.142903 0.223463 0)
(-0.157343 0.186896 0)
(-0.166978 0.142489 0)
(-0.173244 0.0931217 0)
(-0.177268 0.0405709 0)
(-0.179655 -0.0140179 0)
(-0.180363 -0.0696597 0)
(-0.178631 -0.125029 0)
(-0.172983 -0.177891 0)
(-0.161374 -0.224456 0)
(-0.141612 -0.258727 0)
(-0.112267 -0.272089 0)
(-0.0744976 -0.253654 0)
(-0.0350448 -0.192246 0)
(-0.00431097 -0.0808686 0)
(-0.00477052 0.0903521 0)
(-0.0346242 0.206243 0)
(-0.0689603 0.265717 0)
(-0.0988111 0.28195 0)
(-0.119439 0.268849 0)
(-0.131287 0.237478 0)
(-0.136707 0.195456 0)
(-0.138349 0.147503 0)
(-0.138518 0.0962357 0)
(-0.138898 0.0428876 0)
(-0.140437 -0.0120879 0)
(-0.143271 -0.0684963 0)
(-0.146634 -0.125867 0)
(-0.148758 -0.182802 0)
(-0.146847 -0.236113 0)
(-0.137289 -0.279739 0)
(-0.116482 -0.303609 0)
(-0.0830634 -0.29311 0)
(-0.0423895 -0.230618 0)
(-0.00591544 -0.1013 0)
(-0.00680746 0.11122 0)
(-0.042483 0.240937 0)
(-0.0755839 0.297221 0)
(-0.0973997 0.303394 0)
(-0.105639 0.279818 0)
(-0.103701 0.240486 0)
(-0.0961193 0.193794 0)
(-0.0868617 0.144191 0)
(-0.0789401 0.0936066 0)
(-0.074412 0.0424639 0)
(-0.0744572 -0.00963516 0)
(-0.079406 -0.0634133 0)
(-0.0886549 -0.119444 0)
(-0.100456 -0.177522 0)
(-0.111625 -0.235689 0)
(-0.11734 -0.288702 0)
(-0.111485 -0.32593 0)
(-0.0888335 -0.329147 0)
(-0.050984 -0.272155 0)
(-0.0082919 -0.126687 0)
(-0.00980352 0.138146 0)
(-0.0519797 0.277362 0)
(-0.0782048 0.321511 0)
(-0.0838046 0.311158 0)
(-0.0720767 0.274517 0)
(-0.0506961 0.227616 0)
(-0.0264268 0.178427 0)
(-0.00408845 0.130229 0)
(0.0131488 0.0837564 0)
(0.0233048 0.0384212 0)
(0.0252409 -0.00703847 0)
(0.0184894 -0.0541982 0)
(0.00329755 -0.104654 0)
(-0.0190841 -0.159577 0)
(-0.0458377 -0.218821 0)
(-0.0717798 -0.279176 0)
(-0.0887224 -0.33126 0)
(-0.0865572 -0.354873 0)
(-0.0595079 -0.31406 0)
(-0.0115061 -0.158464 0)
(-0.0137531 0.175126 0)
(-0.0598596 0.311861 0)
(-0.0669838 0.329081 0)
(-0.0435209 0.295434 0)
(-0.00302188 0.245561 0)
(0.0423293 0.194275 0)
(0.0848293 0.146927 0)
(0.120162 0.104524 0)
(0.146045 0.0662234 0)
(0.161279 0.0304451 0)
(0.165174 -0.00469659 0)
(0.157269 -0.0412863 0)
(0.13731 -0.0815904 0)
(0.105513 -0.127944 0)
(0.0632512 -0.182241 0)
(0.0143483 -0.24446 0)
(-0.0329917 -0.309214 0)
(-0.0645702 -0.358777 0)
(-0.0630472 -0.350271 0)
(-0.015314 -0.199773 0)
(-0.0187316 0.227245 0)
(-0.0534005 0.332796 0)
(-0.0166624 0.303333 0)
(0.0527944 0.244357 0)
(0.127961 0.187272 0)
(0.19631 0.139231 0)
(0.253076 0.100445 0)
(0.296793 0.0690382 0)
(0.327363 0.0427413 0)
(0.345061 0.0194255 0)
(0.350016 -0.00287815 0)
(0.341957 -0.0261527 0)
(0.32014 -0.0526377 0)
(0.283443 -0.0850715 0)
(0.230814 -0.126778 0)
(0.162404 -0.181125 0)
(0.081967 -0.249256 0)
(0.00214688 -0.323295 0)
(-0.0469578 -0.365416 0)
(-0.0188861 -0.252835 0)
(-0.00226929 0.258732 0)
(0.0195562 0.298286 0)
(0.136201 0.221743 0)
(0.259452 0.153624 0)
(0.359663 0.105205 0)
(0.436295 0.071674 0)
(0.493304 0.0483178 0)
(0.534053 0.0315399 0)
(0.56113 0.0187625 0)
(0.576307 0.00817442 0)
(0.580485 -0.00160018 0)
(0.573671 -0.0118177 0)
(0.554904 -0.0239271 0)
(0.522118 -0.0399527 0)
(0.471982 -0.0629927 0)
(0.399803 -0.0977492 0)
(0.299659 -0.150694 0)
(0.169701 -0.227793 0)
(0.0398521 -0.314423 0)
(0.0040015 -0.275089 0)
(0.268726 0.115948 0)
(0.378786 0.100418 0)
(0.540346 0.0528046 0)
(0.658962 0.0282104 0)
(0.732612 0.0163936 0)
(0.779412 0.00976219 0)
(0.810182 0.00579735 0)
(0.830269 0.00336988 0)
(0.842696 0.00178279 0)
(0.849203 0.000615634 0)
(0.850626 -0.000395287 0)
(0.847078 -0.00146233 0)
(0.837943 -0.00283227 0)
(0.821647 -0.0048982 0)
(0.795163 -0.00835595 0)
(0.752855 -0.014414 0)
(0.683191 -0.0256786 0)
(0.565518 -0.0500544 0)
(0.397183 -0.0996017 0)
(0.275601 -0.118502 0)
)
;

boundaryField
{
    movingWall
    {
        type            fixedValue;
        value           uniform (1 0 0);
    }
    fixedWalls
    {
        type            noSlip;
    }
    frontAndBack
    {
        type            empty;
    }
}


// ************************************************************************* //
