/*--------------------------------*- C++ -*----------------------------------*\
| =========                 |                                                 |
| \\      /  F ield         | OpenFOAM: The Open Source CFD Toolbox           |
|  \\    /   O peration     | Version:  2512                                  |
|   \\  /    A nd           | Website:  www.openfoam.com                      |
|    \\/     M anipulation  |                                                 |
\*---------------------------------------------------------------------------*/
FoamFile
{
    version     2.0;
    format      ascii;
    arch        "LSB;label=32;scalar=64";
    class       volVectorField;
    location    "0.4";
    object      D;
}
// * * * * * * * * * * * * * * * * * * * * * * * * * * * * * * * * * * * * * //

dimensions      [0 1 0 0 0 0 0];

internalField   nonuniform List<vector> 
160
(
(-7.4286742e-08 -4.0743264e-08 0)
(-2.108921e-07 -1.7052687e-07 0)
(-3.3807921e-07 -3.8301781e-07 0)
(-4.5564733e-07 -6.7543312e-07 0)
(-5.6393618e-07 -1.042238e-06 0)
(-6.632688e-07 -1.4773862e-06 0)
(-7.5397182e-07 -1.9750094e-06 0)
(-8.3637067e-07 -2.5294599e-06 0)
(-9.1078964e-07 -3.1353107e-06 0)
(-9.7755178e-07 -3.7873514e-06 0)
(-1.0369786e-06 -4.4805877e-06 0)
(-1.0893901e-06 -5.2102388e-06 0)
(-1.1351043e-06 -5.9717373e-06 0)
(-1.1744373e-06 -6.7607272e-06 0)
(-1.2077031e-06 -7.5730628e-06 0)
(-1.2352134e-06 -8.4048074e-06 0)
(-1.2572776e-06 -9.2522314e-06 0)
(-1.2742026e-06 -1.0111811e-05 0)
(-1.2862924e-06 -1.0980226e-05 0)
(-1.2938486e-06 -1.1854358e-05 0)
(-1.2971698e-06 -1.273129e-05 0)
(-1.2965516e-06 -1.3608302e-05 0)
(-1.2922867e-06 -1.448287e-05 0)
(-1.2846645e-06 -1.5352666e-05 0)
(-1.2739713e-06 -1.6215553e-05 0)
(-1.2604903e-06 -1.7069584e-05 0)
(-1.2445011e-06 -1.7912998e-05 0)
(-1.22628e-06 -1.8744222e-05 0)
(-1.2060998e-06 -1.9561866e-05 0)
(-1.1842297e-06 -2.036472e-05 0)
(-1.1609355e-06 -2.1151752e-05 0)
(-1.1364795e-06 -2.1922104e-05 0)
(-1.1111212e-06 -2.2675093e-05 0)
(-1.0851165e-06 -2.3410209e-05 0)
(-1.0587161e-06 -2.4127126e-05 0)
(-1.0321631e-06 -2.4825713e-05 0)
(-1.005684e-06 -2.550607e-05 0)
(-9.7948502e-07 -2.6168222e-05 0)
(-9.5341457e-07 -2.6809587e-05 0)
(-9.2787344e-07 -2.7394739e-05 0)
(-2.0889788e-08 -1.4915949e-08 0)
(-6.7183952e-08 -1.4352078e-07 0)
(-1.1005617e-07 -3.5811117e-07 0)
(-1.4946837e-07 -6.5265171e-07 0)
(-1.8568593e-07 -1.0213511e-06 0)
(-2.1889101e-07 -1.4582748e-06 0)
(-2.4921266e-07 -1.957595e-06 0)
(-2.7676432e-07 -2.5136749e-06 0)
(-3.0165524e-07 -3.1210897e-06 0)
(-3.2399335e-07 -3.7746301e-06 0)
(-3.4388588e-07 -4.4693018e-06 0)
(-3.6143942e-07 -5.2003246e-06 0)
(-3.7675998e-07 -5.9631314e-06 0)
(-3.8995288e-07 -6.7533666e-06 0)
(-4.0112275e-07 -7.566885e-06 0)
(-4.1037346e-07 -8.3997503e-06 0)
(-4.1780809e-07 -9.2482334e-06 0)
(-4.2352887e-07 -1.0108811e-05 0)
(-4.2763718e-07 -1.0978163e-05 0)
(-4.3023347e-07 -1.1853173e-05 0)
(-4.3141725e-07 -1.2730923e-05 0)
(-4.3128703e-07 -1.3608694e-05 0)
(-4.2994035e-07 -1.4483964e-05 0)
(-4.2747367e-07 -1.5354404e-05 0)
(-4.2398242e-07 -1.6217877e-05 0)
(-4.1956094e-07 -1.7072438e-05 0)
(-4.1430246e-07 -1.7916327e-05 0)
(-4.0829909e-07 -1.8747971e-05 0)
(-4.0164176e-07 -1.9565981e-05 0)
(-3.9442029e-07 -2.0369147e-05 0)
(-3.8672347e-07 -2.1156437e-05 0)
(-3.7863934e-07 -2.1926996e-05 0)
(-3.7025587e-07 -2.2680139e-05 0)
(-3.6166288e-07 -2.3415353e-05 0)
(-3.5295947e-07 -2.4132296e-05 0)
(-3.4428316e-07 -2.4830753e-05 0)
(-3.3592205e-07 -2.5510488e-05 0)
(-3.2868196e-07 -2.6170557e-05 0)
(-3.2478527e-07 -2.680728e-05 0)
(-3.2582834e-07 -2.7411559e-05 0)
(2.0887462e-08 -1.4915481e-08 0)
(6.7176261e-08 -1.4351995e-07 0)
(1.1004294e-07 -3.5811024e-07 0)
(1.4944958e-07 -6.5265079e-07 0)
(1.8566156e-07 -1.0213501e-06 0)
(2.1886108e-07 -1.4582739e-06 0)
(2.4917716e-07 -1.9575941e-06 0)
(2.7672329e-07 -2.513674e-06 0)
(3.016087e-07 -3.1210888e-06 0)
(3.2394138e-07 -3.7746292e-06 0)
(3.4382856e-07 -4.4693009e-06 0)
(3.6137687e-07 -5.2003237e-06 0)
(3.7669232e-07 -5.9631305e-06 0)
(3.8988027e-07 -6.7533658e-06 0)
(4.0104535e-07 -7.5668842e-06 0)
(4.1029146e-07 -8.3997495e-06 0)
(4.177217e-07 -9.2482326e-06 0)
(4.2343831e-07 -1.010881e-05 0)
(4.2754268e-07 -1.0978162e-05 0)
(4.3013527e-07 -1.1853172e-05 0)
(4.313156e-07 -1.2730922e-05 0)
(4.311822e-07 -1.3608693e-05 0)
(4.298326e-07 -1.4483963e-05 0)
(4.2736326e-07 -1.5354403e-05 0)
(4.2386961e-07 -1.6217877e-05 0)
(4.1944596e-07 -1.7072437e-05 0)
(4.1418552e-07 -1.7916326e-05 0)
(4.0818034e-07 -1.8747971e-05 0)
(4.0152137e-07 -1.9565981e-05 0)
(3.9429839e-07 -2.0369147e-05 0)
(3.8660015e-07 -2.1156438e-05 0)
(3.7851456e-07 -2.1926996e-05 0)
(3.7012939e-07 -2.2680138e-05 0)
(3.6153439e-07 -2.3415353e-05 0)
(3.528289e-07 -2.4132295e-05 0)
(3.4415079e-07 -2.4830753e-05 0)
(3.3578849e-07 -2.5510488e-05 0)
(3.2854774e-07 -2.6170558e-05 0)
(3.2465046e-07 -2.6807281e-05 0)
(3.2569319e-07 -2.7411559e-05 0)
(7.428423e-08 -4.0741694e-08 0)
(2.1088471e-07 -1.7052448e-07 0)
(3.3806685e-07 -3.830152e-07 0)
(4.5562987e-07 -6.7543049e-07 0)
(5.6391357e-07 -1.0422353e-06 0)
(6.6324098e-07 -1.4773836e-06 0)
(7.5393879e-07 -1.9750068e-06 0)
(8.3633242e-07 -2.5294573e-06 0)
(9.1074621e-07 -3.1353081e-06 0)
(9.7750323e-07 -3.7873489e-06 0)
(1.0369251e-06 -4.4805852e-06 0)
(1.0893316e-06 -5.2102364e-06 0)
(1.135041e-06 -5.9717349e-06 0)
(1.1743693e-06 -6.7607248e-06 0)
(1.2076305e-06 -7.5730606e-06 0)
(1.2351365e-06 -8.4048052e-06 0)
(1.2571965e-06 -9.2522293e-06 0)
(1.2741175e-06 -1.0111809e-05 0)
(1.2862036e-06 -1.0980224e-05 0)
(1.2937563e-06 -1.1854356e-05 0)
(1.2970743e-06 -1.2731288e-05 0)
(1.296453e-06 -1.36083e-05 0)
(1.2921853e-06 -1.4482869e-05 0)
(1.2845605e-06 -1.5352665e-05 0)
(1.2738651e-06 -1.6215552e-05 0)
(1.2603819e-06 -1.7069583e-05 0)
(1.2443908e-06 -1.7912997e-05 0)
(1.226168e-06 -1.8744222e-05 0)
(1.2059862e-06 -1.9561866e-05 0)
(1.1841146e-06 -2.036472e-05 0)
(1.1608187e-06 -2.1151752e-05 0)
(1.136361e-06 -2.1922104e-05 0)
(1.1110009e-06 -2.2675092e-05 0)
(1.0849943e-06 -2.3410208e-05 0)
(1.0585922e-06 -2.4127125e-05 0)
(1.0320373e-06 -2.4825712e-05 0)
(1.0055565e-06 -2.5506071e-05 0)
(9.7935618e-07 -2.6168223e-05 0)
(9.5328483e-07 -2.6809587e-05 0)
(9.2774305e-07 -2.7394739e-05 0)
)
;

boundaryField
{
    left
    {
        nonOrthogonalCorrections true;
        type            fixedDisplacement;
        value           uniform (0 0 0);
    }
    right
    {
        type            solidTraction;
        nonOrthogonalCorrections true;
        useUndeformedArea false;
        traction        uniform (0 0 0);
        pressure        uniform 0;
        secondOrder     false;
        extrapolateValue false;
        setEffectiveTraction false;
        relaxationFactor 1;
        value           nonuniform List<vector> 4((-9.0185315e-07 -2.7596926e-05 0) (-3.1693963e-07 -2.7715534e-05 0) (3.1680473e-07 -2.7715535e-05 0) (9.0172268e-07 -2.7596928e-05 0));
        gradient        nonuniform List<vector> 4((2.0816229e-06 -1.6175013e-05 0) (7.1109673e-07 -2.4317989e-05 0) (-7.1107725e-07 -2.4318078e-05 0) (-2.0816293e-06 -1.6175111e-05 0));
    }
    top
    {
        type            solidTraction;
        nonOrthogonalCorrections true;
        useUndeformedArea false;
        traction        uniform (0 0 0);
        pressure        uniform 0;
        secondOrder     false;
        extrapolateValue false;
        setEffectiveTraction false;
        relaxationFactor 1;
        value           nonuniform List<vector> 
40
(
(1.2325851e-07 -6.3000577e-08 0)
(2.9687055e-07 -1.9602974e-07 0)
(4.6343663e-07 -4.0719807e-07 0)
(6.1941972e-07 -6.9791441e-07 0)
(7.6333306e-07 -1.062922e-06 0)
(8.9535193e-07 -1.4963156e-06 0)
(1.0158683e-06 -1.9922459e-06 0)
(1.1253133e-06 -2.5450684e-06 0)
(1.2241199e-06 -3.1493558e-06 0)
(1.3127193e-06 -3.799898e-06 0)
(1.3915405e-06 -4.4916997e-06 0)
(1.4610103e-06 -5.2199803e-06 0)
(1.521553e-06 -5.9801716e-06 0)
(1.5735903e-06 -6.7679175e-06 0)
(1.6175411e-06 -7.5790717e-06 0)
(1.6538212e-06 -8.409697e-06 0)
(1.6828432e-06 -9.2560634e-06 0)
(1.7050165e-06 -1.0114646e-05 0)
(1.7207468e-06 -1.0982125e-05 0)
(1.7304361e-06 -1.1855382e-05 0)
(1.7344828e-06 -1.2731497e-05 0)
(1.7332811e-06 -1.3607752e-05 0)
(1.7272213e-06 -1.4481621e-05 0)
(1.7166896e-06 -1.5350776e-05 0)
(1.7020677e-06 -1.6213078e-05 0)
(1.6837331e-06 -1.706658e-05 0)
(1.6620589e-06 -1.7909521e-05 0)
(1.6374136e-06 -1.8740328e-05 0)
(1.6101609e-06 -1.9557609e-05 0)
(1.5806595e-06 -2.0360152e-05 0)
(1.5492631e-06 -2.1146926e-05 0)
(1.5163215e-06 -2.1917073e-05 0)
(1.4821812e-06 -2.2669907e-05 0)
(1.447187e-06 -2.3404921e-05 0)
(1.4116797e-06 -2.4121785e-05 0)
(1.3759728e-06 -2.4820351e-05 0)
(1.3401649e-06 -2.5500571e-05 0)
(1.302597e-06 -2.6161782e-05 0)
(1.2542346e-06 -2.6796458e-05 0)
(1.1274042e-06 -2.7368322e-05 0)
)
;
        gradient        nonuniform List<vector> 
40
(
(3.9179425e-06 -1.7807107e-06 0)
(6.878867e-06 -2.0404209e-06 0)
(1.0029582e-05 -1.9346294e-06 0)
(1.3103188e-05 -1.7987132e-06 0)
(1.5953559e-05 -1.6549344e-06 0)
(1.8568876e-05 -1.5145617e-06 0)
(2.0954365e-05 -1.3791293e-06 0)
(2.3118474e-05 -1.2488828e-06 0)
(2.5069897e-05 -1.1238232e-06 0)
(2.6817285e-05 -1.0039266e-06 0)
(2.8369235e-05 -8.8916653e-07 0)
(2.9734295e-05 -7.7951455e-07 0)
(3.0920963e-05 -6.7494011e-07 0)
(3.1937685e-05 -5.7541037e-07 0)
(3.2792847e-05 -4.8089017e-07 0)
(3.3494776e-05 -3.9134218e-07 0)
(3.4051735e-05 -3.0672697e-07 0)
(3.4471919e-05 -2.2700311e-07 0)
(3.4763451e-05 -1.5212735e-07 0)
(3.4934381e-05 -8.2054645e-08 0)
(3.4992681e-05 -1.6738395e-08 0)
(3.4946244e-05 4.3869498e-08 0)
(3.4802882e-05 9.9818486e-08 0)
(3.4570323e-05 1.5115924e-07 0)
(3.4256208e-05 1.9794357e-07 0)
(3.3868094e-05 2.4022421e-07 0)
(3.3413448e-05 2.7805512e-07 0)
(3.2899649e-05 3.1149242e-07 0)
(3.2333976e-05 3.4059505e-07 0)
(3.1723593e-05 3.6542283e-07 0)
(3.1075551e-05 3.8603e-07 0)
(3.0396833e-05 4.0245883e-07 0)
(2.9694426e-05 4.1474019e-07 0)
(2.8975414e-05 4.2290891e-07 0)
(2.8247001e-05 4.271514e-07 0)
(2.7514837e-05 4.2892e-07 0)
(2.6768672e-05 4.4004145e-07 0)
(2.5859267e-05 5.1527068e-07 0)
(2.407598e-05 1.0503769e-06 0)
(1.5972889e-05 2.1133985e-06 0)
)
;
    }
    bottom
    {
        type            solidTraction;
        nonOrthogonalCorrections true;
        useUndeformedArea false;
        traction        uniform (0 0 0);
        pressure        uniform 0;
        secondOrder     false;
        extrapolateValue false;
        setEffectiveTraction false;
        relaxationFactor 1;
        value           nonuniform List<vector> 
40
(
(-1.232618e-07 -6.3002725e-08 0)
(-2.9687823e-07 -1.9603281e-07 0)
(-4.6344906e-07 -4.0720141e-07 0)
(-6.194372e-07 -6.979178e-07 0)
(-7.6335568e-07 -1.0629254e-06 0)
(-8.9537975e-07 -1.496319e-06 0)
(-1.0159014e-06 -1.9922493e-06 0)
(-1.1253516e-06 -2.5450717e-06 0)
(-1.2241633e-06 -3.1493592e-06 0)
(-1.3127678e-06 -3.7999013e-06 0)
(-1.391594e-06 -4.491703e-06 0)
(-1.4610688e-06 -5.2199835e-06 0)
(-1.5216163e-06 -5.9801748e-06 0)
(-1.5736583e-06 -6.7679205e-06 0)
(-1.6176136e-06 -7.5790746e-06 0)
(-1.653898e-06 -8.4096998e-06 0)
(-1.6829242e-06 -9.2560661e-06 0)
(-1.7051015e-06 -1.0114649e-05 0)
(-1.7208355e-06 -1.0982128e-05 0)
(-1.7305283e-06 -1.1855384e-05 0)
(-1.7345782e-06 -1.2731499e-05 0)
(-1.7333796e-06 -1.3607754e-05 0)
(-1.7273226e-06 -1.4481623e-05 0)
(-1.7167934e-06 -1.5350777e-05 0)
(-1.7021739e-06 -1.6213079e-05 0)
(-1.6838414e-06 -1.7066581e-05 0)
(-1.6621691e-06 -1.7909522e-05 0)
(-1.6375254e-06 -1.8740329e-05 0)
(-1.6102743e-06 -1.9557609e-05 0)
(-1.5807745e-06 -2.0360153e-05 0)
(-1.5493799e-06 -2.1146927e-05 0)
(-1.5164402e-06 -2.1917073e-05 0)
(-1.4823018e-06 -2.2669909e-05 0)
(-1.4473092e-06 -2.3404923e-05 0)
(-1.4118033e-06 -2.4121787e-05 0)
(-1.376098e-06 -2.4820351e-05 0)
(-1.3402921e-06 -2.550057e-05 0)
(-1.3027259e-06 -2.6161781e-05 0)
(-1.2543644e-06 -2.6796458e-05 0)
(-1.1275342e-06 -2.7368321e-05 0)
)
;
        gradient        nonuniform List<vector> 
40
(
(-3.9180044e-06 -1.7807569e-06 0)
(-6.878891e-06 -2.0404759e-06 0)
(-1.0029588e-05 -1.9346882e-06 0)
(-1.310319e-05 -1.7987744e-06 0)
(-1.595356e-05 -1.6549965e-06 0)
(-1.8568876e-05 -1.5146243e-06 0)
(-2.0954364e-05 -1.3791919e-06 0)
(-2.3118474e-05 -1.2489452e-06 0)
(-2.5069896e-05 -1.123885e-06 0)
(-2.6817283e-05 -1.0039876e-06 0)
(-2.8369233e-05 -8.8922646e-07 0)
(-2.9734292e-05 -7.7957316e-07 0)
(-3.092096e-05 -6.7499716e-07 0)
(-3.1937681e-05 -5.7546563e-07 0)
(-3.2792842e-05 -4.8094344e-07 0)
(-3.3494771e-05 -3.9139327e-07 0)
(-3.405173e-05 -3.067757e-07 0)
(-3.4471913e-05 -2.2704934e-07 0)
(-3.4763445e-05 -1.5217091e-07 0)
(-3.4934375e-05 -8.2095443e-08 0)
(-3.4992674e-05 -1.6776325e-08 0)
(-3.4946238e-05 4.3834482e-08 0)
(-3.4802876e-05 9.9786395e-08 0)
(-3.4570317e-05 1.5113002e-07 0)
(-3.4256203e-05 1.979171e-07 0)
(-3.3868088e-05 2.4020038e-07 0)
(-3.3413441e-05 2.7803379e-07 0)
(-3.2899639e-05 3.1147294e-07 0)
(-3.2333962e-05 3.4057597e-07 0)
(-3.1723581e-05 3.6540231e-07 0)
(-3.1075555e-05 3.8600734e-07 0)
(-3.0396857e-05 4.0243602e-07 0)
(-2.9694455e-05 4.1471963e-07 0)
(-2.897542e-05 4.2289089e-07 0)
(-2.8246973e-05 4.271331e-07 0)
(-2.7514794e-05 4.2889841e-07 0)
(-2.6768651e-05 4.4001926e-07 0)
(-2.5859273e-05 5.1525515e-07 0)
(-2.4075983e-05 1.0503704e-06 0)
(-1.5972858e-05 2.1133943e-06 0)
)
;
    }
    frontAndBack
    {
        type            empty;
    }
}


// ************************************************************************* //
