/*--------------------------------*- C++ -*----------------------------------*\
| =========                 |                                                 |
| \\      /  F ield         | OpenFOAM: The Open Source CFD Toolbox           |
|  \\    /   O peration     | Version:  2512                                  |
|   \\  /    A nd           | Website:  www.openfoam.com                      |
|    \\/     M anipulation  |                                                 |
\*---------------------------------------------------------------------------*/
FoamFile
{
    version     2.0;
    format      ascii;
    arch        "LSB;label=32;scalar=64";
    class       volVectorField;
    location    "0.4";
    object      D_0;
}
// * * * * * * * * * * * * * * * * * * * * * * * * * * * * * * * * * * * * * //

dimensions      [0 1 0 0 0 0 0];

internalField   nonuniform List<vector> 
160
(
(-6.9258217e-08 -3.8814943e-08 0)
(-1.958571e-07 -1.6144059e-07 0)
(-3.1304588e-07 -3.6042932e-07 0)
(-4.206849e-07 -6.3270249e-07 0)
(-5.1914181e-07 -9.7272895e-07 0)
(-6.087674e-07 -1.3745363e-06 0)
(-6.8991524e-07 -1.8323505e-06 0)
(-7.6293713e-07 -2.3406354e-06 0)
(-8.2818307e-07 -2.8940926e-06 0)
(-8.8600115e-07 -3.4876575e-06 0)
(-9.3673711e-07 -4.1164977e-06 0)
(-9.8073424e-07 -4.7760107e-06 0)
(-1.018333e-06 -5.4618225e-06 0)
(-1.0498711e-06 -6.1697854e-06 0)
(-1.0756828e-06 -6.8959762e-06 0)
(-1.0960992e-06 -7.6366935e-06 0)
(-1.1114479e-06 -8.3884562e-06 0)
(-1.1220526e-06 -9.1480002e-06 0)
(-1.1282332e-06 -9.9122765e-06 0)
(-1.1303059e-06 -1.0678448e-05 0)
(-1.1285824e-06 -1.1443888e-05 0)
(-1.1233703e-06 -1.2206175e-05 0)
(-1.1149729e-06 -1.2963092e-05 0)
(-1.1036891e-06 -1.3712623e-05 0)
(-1.0898131e-06 -1.4452951e-05 0)
(-1.0736349e-06 -1.5182451e-05 0)
(-1.0554394e-06 -1.5899692e-05 0)
(-1.0355072e-06 -1.6603432e-05 0)
(-1.0141139e-06 -1.7292613e-05 0)
(-9.9153002e-07 -1.796636e-05 0)
(-9.6802158e-07 -1.8623976e-05 0)
(-9.4385012e-07 -1.9264939e-05 0)
(-9.1927318e-07 -1.9888897e-05 0)
(-8.9454414e-07 -2.0495673e-05 0)
(-8.6991015e-07 -2.1085267e-05 0)
(-8.4560972e-07 -2.165787e-05 0)
(-8.2186563e-07 -2.2213887e-05 0)
(-7.9888112e-07 -2.2753682e-05 0)
(-7.7656408e-07 -2.3275522e-05 0)
(-7.5525177e-07 -2.3751026e-05 0)
(-1.9397721e-08 -1.4885015e-08 0)
(-6.2253947e-08 -1.365073e-07 0)
(-1.0175261e-07 -3.3754323e-07 0)
(-1.3784745e-07 -6.1190012e-07 0)
(-1.7079128e-07 -9.5379196e-07 0)
(-2.0076721e-07 -1.3573457e-06 0)
(-2.2791099e-07 -1.8168236e-06 0)
(-2.5234421e-07 -2.3266997e-06 0)
(-2.7418457e-07 -2.8816778e-06 0)
(-2.9354822e-07 -3.4766943e-06 0)
(-3.1055046e-07 -4.1069171e-06 0)
(-3.2530565e-07 -4.7677445e-06 0)
(-3.3792724e-07 -5.4548029e-06 0)
(-3.4852769e-07 -6.1639453e-06 0)
(-3.5721842e-07 -6.891249e-06 0)
(-3.6410972e-07 -7.6330135e-06 0)
(-3.6931071e-07 -8.3857581e-06 0)
(-3.7292929e-07 -9.1462198e-06 0)
(-3.7507208e-07 -9.9113501e-06 0)
(-3.7584435e-07 -1.0678313e-05 0)
(-3.7535002e-07 -1.1444482e-05 0)
(-3.736916e-07 -1.2207437e-05 0)
(-3.7097015e-07 -1.2964963e-05 0)
(-3.6728528e-07 -1.3715043e-05 0)
(-3.6273508e-07 -1.4455861e-05 0)
(-3.5741614e-07 -1.5185794e-05 0)
(-3.5142351e-07 -1.5903412e-05 0)
(-3.4485067e-07 -1.6607473e-05 0)
(-3.3778948e-07 -1.729692e-05 0)
(-3.3033027e-07 -1.797088e-05 0)
(-3.2256188e-07 -1.8628655e-05 0)
(-3.1457205e-07 -1.9269725e-05 0)
(-3.0644788e-07 -1.9893738e-05 0)
(-2.9827747e-07 -2.0500515e-05 0)
(-2.9015574e-07 -2.1090043e-05 0)
(-2.8220819e-07 -2.1662447e-05 0)
(-2.7468203e-07 -2.2217857e-05 0)
(-2.6824433e-07 -2.2755856e-05 0)
(-2.6471003e-07 -2.3273842e-05 0)
(-2.6537438e-07 -2.3764893e-05 0)
(1.9394444e-08 -1.4884355e-08 0)
(6.224311e-08 -1.3650614e-07 0)
(1.0173397e-07 -3.3754193e-07 0)
(1.3782099e-07 -6.1189882e-07 0)
(1.7075698e-07 -9.5379065e-07 0)
(2.0072508e-07 -1.3573444e-06 0)
(2.2786104e-07 -1.8168223e-06 0)
(2.5228651e-07 -2.3266985e-06 0)
(2.7411915e-07 -2.8816766e-06 0)
(2.9347522e-07 -3.4766931e-06 0)
(3.1046999e-07 -4.1069159e-06 0)
(3.2521789e-07 -4.7677433e-06 0)
(3.3783238e-07 -5.4548017e-06 0)
(3.4842597e-07 -6.1639442e-06 0)
(3.5711007e-07 -6.8912479e-06 0)
(3.6399504e-07 -7.6330124e-06 0)
(3.6918999e-07 -8.3857571e-06 0)
(3.7280285e-07 -9.1462189e-06 0)
(3.7494024e-07 -9.9113492e-06 0)
(3.7570748e-07 -1.0678312e-05 0)
(3.7520848e-07 -1.1444481e-05 0)
(3.7354576e-07 -1.2207437e-05 0)
(3.7082038e-07 -1.2964962e-05 0)
(3.6713196e-07 -1.3715043e-05 0)
(3.6257857e-07 -1.4455861e-05 0)
(3.5725677e-07 -1.5185794e-05 0)
(3.5126155e-07 -1.5903412e-05 0)
(3.4468636e-07 -1.6607473e-05 0)
(3.3762302e-07 -1.729692e-05 0)
(3.3016185e-07 -1.797088e-05 0)
(3.2239164e-07 -1.8628656e-05 0)
(3.1439991e-07 -1.9269725e-05 0)
(3.0627351e-07 -1.9893738e-05 0)
(2.9810043e-07 -2.0500514e-05 0)
(2.8997592e-07 -2.1090042e-05 0)
(2.8202596e-07 -2.1662447e-05 0)
(2.7449822e-07 -2.2217857e-05 0)
(2.6805964e-07 -2.2755857e-05 0)
(2.6452455e-07 -2.3273842e-05 0)
(2.6518844e-07 -2.3764894e-05 0)
(6.9254678e-08 -3.8812731e-08 0)
(1.958467e-07 -1.6143723e-07 0)
(3.1302848e-07 -3.6042566e-07 0)
(4.2066031e-07 -6.3269879e-07 0)
(5.1910998e-07 -9.7272524e-07 0)
(6.0872825e-07 -1.3745326e-06 0)
(6.8986878e-07 -1.8323468e-06 0)
(7.6288334e-07 -2.3406318e-06 0)
(8.2812205e-07 -2.894089e-06 0)
(8.8593296e-07 -3.4876539e-06 0)
(9.3666189e-07 -4.1164941e-06 0)
(9.8065213e-07 -4.7760072e-06 0)
(1.0182442e-06 -5.4618192e-06 0)
(1.0497758e-06 -6.1697822e-06 0)
(1.0755813e-06 -6.8959731e-06 0)
(1.0959917e-06 -7.6366906e-06 0)
(1.1113346e-06 -8.3884534e-06 0)
(1.1219338e-06 -9.1479975e-06 0)
(1.1281094e-06 -9.9122739e-06 0)
(1.1301773e-06 -1.0678446e-05 0)
(1.1284493e-06 -1.1443886e-05 0)
(1.1232331e-06 -1.2206173e-05 0)
(1.114832e-06 -1.296309e-05 0)
(1.1035447e-06 -1.3712622e-05 0)
(1.0896657e-06 -1.4452949e-05 0)
(1.0734847e-06 -1.518245e-05 0)
(1.0552868e-06 -1.5899691e-05 0)
(1.0353523e-06 -1.6603431e-05 0)
(1.0139568e-06 -1.7292613e-05 0)
(9.9137094e-07 -1.796636e-05 0)
(9.6786039e-07 -1.8623977e-05 0)
(9.4368669e-07 -1.9264938e-05 0)
(9.191074e-07 -1.9888895e-05 0)
(8.9437587e-07 -2.049567e-05 0)
(8.6973943e-07 -2.1085265e-05 0)
(8.4543656e-07 -2.165787e-05 0)
(8.216902e-07 -2.2213888e-05 0)
(7.9870382e-07 -2.2753683e-05 0)
(7.7638557e-07 -2.3275522e-05 0)
(7.5507237e-07 -2.3751027e-05 0)
)
;

boundaryField
{
    left
    {
        nonOrthogonalCorrections true;
        type            fixedDisplacement;
        value           uniform (0 0 0);
    }
    right
    {
        type            solidTraction;
        nonOrthogonalCorrections true;
        useUndeformedArea false;
        traction        uniform (0 0 0);
        pressure        uniform 0;
        secondOrder     false;
        extrapolateValue false;
        setEffectiveTraction false;
        relaxationFactor 1;
        value           nonuniform List<vector> 4((-7.3409889e-07 -2.3915173e-05 0) (-2.5812506e-07 -2.4011956e-05 0) (2.5793946e-07 -2.4011958e-05 0) (7.3391938e-07 -2.3915176e-05 0));
        gradient        uniform (0 0 0);
    }
    top
    {
        type            solidTraction;
        nonOrthogonalCorrections true;
        useUndeformedArea false;
        traction        uniform (0 0 0);
        pressure        uniform 0;
        secondOrder     false;
        extrapolateValue false;
        setEffectiveTraction false;
        relaxationFactor 1;
        value           nonuniform List<vector> 
40
(
(1.1546062e-07 -5.954322e-08 0)
(2.765272e-07 -1.8501117e-07 0)
(4.2993239e-07 -3.8262441e-07 0)
(5.7266717e-07 -6.5319991e-07 0)
(7.0343709e-07 -9.9144932e-07 0)
(8.2247638e-07 -1.3915296e-06 0)
(9.3021631e-07 -1.8476841e-06 0)
(1.0271233e-06 -2.3543794e-06 0)
(1.1136649e-06 -2.9063169e-06 0)
(1.1903055e-06 -3.4984316e-06 0)
(1.2575066e-06 -4.1258906e-06 0)
(1.3157263e-06 -4.7840909e-06 0)
(1.3654189e-06 -5.4686579e-06 0)
(1.4070348e-06 -6.1754433e-06 0)
(1.4410201e-06 -6.9005232e-06 0)
(1.4678165e-06 -7.6401956e-06 0)
(1.487861e-06 -8.3909784e-06 0)
(1.5015854e-06 -9.1496071e-06 0)
(1.5094167e-06 -9.9130316e-06 0)
(1.5117762e-06 -1.0678414e-05 0)
(1.5090799e-06 -1.1443127e-05 0)
(1.5017382e-06 -1.2204748e-05 0)
(1.4901555e-06 -1.296106e-05 0)
(1.4747303e-06 -1.3710045e-05 0)
(1.4558552e-06 -1.4449885e-05 0)
(1.4339167e-06 -1.5178955e-05 0)
(1.409295e-06 -1.5895823e-05 0)
(1.3823641e-06 -1.6599244e-05 0)
(1.3534914e-06 -1.7288162e-05 0)
(1.3230374e-06 -1.79617e-05 0)
(1.291356e-06 -1.8619159e-05 0)
(1.2587954e-06 -1.9260015e-05 0)
(1.2256998e-06 -1.9883918e-05 0)
(1.19241e-06 -2.0490689e-05 0)
(1.1592616e-06 -2.1080329e-05 0)
(1.1265641e-06 -2.1653012e-05 0)
(1.0944488e-06 -2.2209021e-05 0)
(1.0616183e-06 -2.2748164e-05 0)
(1.020789e-06 -2.3264694e-05 0)
(9.1706609e-07 -2.372954e-05 0)
)
;
        gradient        uniform (0 0 0);
    }
    bottom
    {
        type            solidTraction;
        nonOrthogonalCorrections true;
        useUndeformedArea false;
        traction        uniform (0 0 0);
        pressure        uniform 0;
        secondOrder     false;
        extrapolateValue false;
        setEffectiveTraction false;
        relaxationFactor 1;
        value           nonuniform List<vector> 
40
(
(-1.1546525e-07 -5.9546246e-08 0)
(-2.7653803e-07 -1.8501551e-07 0)
(-4.2994991e-07 -3.8262911e-07 0)
(-5.7269178e-07 -6.5320468e-07 0)
(-7.0346892e-07 -9.9145412e-07 0)
(-8.2251553e-07 -1.3915344e-06 0)
(-9.3026277e-07 -1.8476889e-06 0)
(-1.0271771e-06 -2.3543842e-06 0)
(-1.1137258e-06 -2.9063216e-06 0)
(-1.1903736e-06 -3.4984362e-06 0)
(-1.2575818e-06 -4.1258952e-06 0)
(-1.3158084e-06 -4.7840954e-06 0)
(-1.3655077e-06 -5.4686623e-06 0)
(-1.40713e-06 -6.1754475e-06 0)
(-1.4411216e-06 -6.9005272e-06 0)
(-1.467924e-06 -7.6401994e-06 0)
(-1.4879742e-06 -8.3909821e-06 0)
(-1.501704e-06 -9.1496105e-06 0)
(-1.5095404e-06 -9.9130349e-06 0)
(-1.5119047e-06 -1.0678417e-05 0)
(-1.5092129e-06 -1.144313e-05 0)
(-1.5018753e-06 -1.2204751e-05 0)
(-1.4902963e-06 -1.2961062e-05 0)
(-1.4748745e-06 -1.3710047e-05 0)
(-1.4560025e-06 -1.4449887e-05 0)
(-1.4340668e-06 -1.5178957e-05 0)
(-1.4094475e-06 -1.5895824e-05 0)
(-1.3825188e-06 -1.6599246e-05 0)
(-1.3536482e-06 -1.7288163e-05 0)
(-1.3231963e-06 -1.79617e-05 0)
(-1.2915173e-06 -1.8619159e-05 0)
(-1.2589592e-06 -1.9260016e-05 0)
(-1.2258661e-06 -1.9883919e-05 0)
(-1.1925784e-06 -2.0490692e-05 0)
(-1.1594319e-06 -2.1080331e-05 0)
(-1.1267365e-06 -2.1653013e-05 0)
(-1.0946239e-06 -2.220902e-05 0)
(-1.0617957e-06 -2.2748163e-05 0)
(-1.0209675e-06 -2.3264694e-05 0)
(-9.1724496e-07 -2.372954e-05 0)
)
;
        gradient        uniform (0 0 0);
    }
    frontAndBack
    {
        type            empty;
    }
}


// ************************************************************************* //
