/*--------------------------------*- C++ -*----------------------------------*\
| =========                 |                                                 |
| \\      /  F ield         | OpenFOAM: The Open Source CFD Toolbox           |
|  \\    /   O peration     | Version:  2512                                  |
|   \\  /    A nd           | Website:  www.openfoam.com                      |
|    \\/     M anipulation  |                                                 |
\*---------------------------------------------------------------------------*/
FoamFile
{
    version     2.0;
    format      ascii;
    arch        "LSB;label=32;scalar=64";
    class       volScalarField;
    location    "0.4";
    object      epsilonEq;
}
// * * * * * * * * * * * * * * * * * * * * * * * * * * * * * * * * * * * * * //

dimensions      [0 0 0 0 0 0 0];

internalField   nonuniform List<scalar> 
160
(
3.7674736e-06
4.0506391e-06
3.8354074e-06
3.5578594e-06
3.2737746e-06
2.9979188e-06
2.7321787e-06
2.4767507e-06
2.2316072e-06
1.9967172e-06
1.7720599e-06
1.5576256e-06
1.3534218e-06
1.1594869e-06
9.7591701e-07
8.0291992e-07
6.4093645e-07
4.9094537e-07
3.5535335e-07
2.4104702e-07
1.694187e-07
1.7574671e-07
2.4099295e-07
3.2293782e-07
4.0510722e-07
4.8238884e-07
5.5294446e-07
6.1602282e-07
6.7130343e-07
7.1865879e-07
7.5804968e-07
7.8947061e-07
8.1291555e-07
8.2834281e-07
8.3566572e-07
8.3562913e-07
8.3996731e-07
9.2635046e-07
1.6541102e-06
4.5846915e-06
1.6175169e-06
1.5923273e-06
1.4810795e-06
1.3758339e-06
1.2799696e-06
1.1895867e-06
1.1033247e-06
1.0208615e-06
9.4216307e-07
8.6726336e-07
7.9621831e-07
7.290993e-07
6.6599471e-07
6.0701301e-07
5.5228579e-07
5.0196987e-07
4.5624677e-07
4.1531698e-07
3.7938534e-07
3.4863322e-07
3.2317516e-07
3.0300316e-07
2.8793142e-07
2.7756321e-07
2.7129941e-07
2.6839263e-07
2.680288e-07
2.6940848e-07
2.7180349e-07
2.7458405e-07
2.7722683e-07
2.7931493e-07
2.8052401e-07
2.8054522e-07
2.7877246e-07
2.7326707e-07
2.5934075e-07
2.5388072e-07
5.2904989e-07
1.430255e-06
1.6173899e-06
1.5921794e-06
1.4809244e-06
1.375676e-06
1.2798104e-06
1.189427e-06
1.1031651e-06
1.0207028e-06
9.4200591e-07
8.6710853e-07
7.9606663e-07
7.289516e-07
6.6585184e-07
6.0687581e-07
5.5215512e-07
5.018466e-07
4.5613178e-07
4.1521114e-07
3.7928946e-07
3.4854797e-07
3.2310101e-07
3.029402e-07
2.8787933e-07
2.7752119e-07
2.7126646e-07
2.6836768e-07
2.6801097e-07
2.6939661e-07
2.7179561e-07
2.7457888e-07
2.7722671e-07
2.7932742e-07
2.8055677e-07
2.8059514e-07
2.7882431e-07
2.7330544e-07
2.5936646e-07
2.539226e-07
5.2910724e-07
1.4302645e-06
3.7673371e-06
4.0504866e-06
3.8352464e-06
3.5576938e-06
3.2736068e-06
2.9977498e-06
2.7320092e-06
2.4765816e-06
2.2314389e-06
1.9965504e-06
1.7718953e-06
1.5574637e-06
1.3532631e-06
1.1593318e-06
9.757659e-07
8.02773e-07
6.4079386e-07
4.9080714e-07
3.5522008e-07
2.4092313e-07
1.693285e-07
1.7572682e-07
2.4101656e-07
3.2297663e-07
4.0515009e-07
4.8243144e-07
5.5298503e-07
6.1606114e-07
6.7134051e-07
7.1869704e-07
7.5809189e-07
7.8951771e-07
8.1296703e-07
8.2839586e-07
8.3571721e-07
8.3567666e-07
8.4000581e-07
9.2637318e-07
1.6541124e-06
4.584705e-06
)
;

boundaryField
{
    left
    {
        type            calculated;
        value           nonuniform List<scalar> 4(4.4655615e-06 1.309925e-06 1.3098082e-06 4.4654083e-06);
    }
    right
    {
        type            calculated;
        value           nonuniform List<scalar> 4(5.4573928e-06 1.8645234e-06 1.8644725e-06 5.4574094e-06);
    }
    top
    {
        type            calculated;
        value           nonuniform List<scalar> 
40
(
4.6665045e-06
5.3472289e-06
5.0700993e-06
4.714006e-06
4.3373003e-06
3.9695151e-06
3.6146708e-06
3.2734118e-06
2.9457413e-06
2.6315979e-06
2.3309129e-06
2.0436136e-06
1.7696221e-06
1.5088559e-06
1.2612283e-06
1.0266512e-06
8.0503967e-07
5.9632598e-07
4.0050846e-07
2.1792695e-07
5.4632711e-08
1.1880626e-07
2.6304698e-07
3.9697164e-07
5.1931234e-07
6.2998394e-07
7.2905985e-07
8.1665934e-07
8.9292336e-07
9.5800119e-07
1.0120306e-06
1.0551196e-06
1.0873471e-06
1.1088032e-06
1.1199753e-06
1.1246683e-06
1.1538727e-06
1.3510864e-06
2.75382e-06
5.5406887e-06
)
;
    }
    bottom
    {
        type            calculated;
        value           nonuniform List<scalar> 
40
(
4.6666254e-06
5.3473728e-06
5.0702532e-06
4.714166e-06
4.337463e-06
3.9696788e-06
3.6148346e-06
3.273575e-06
2.9459031e-06
2.6317575e-06
2.3310697e-06
2.0437669e-06
1.7697714e-06
1.5090004e-06
1.2613676e-06
1.0267848e-06
8.051671e-07
5.9644678e-07
4.0062213e-07
2.1803265e-07
5.4713722e-08
1.1871814e-07
2.6296369e-07
3.9689544e-07
5.1924323e-07
6.2992167e-07
7.290041e-07
8.1660841e-07
8.9287347e-07
9.5794756e-07
1.0119713e-06
1.0550599e-06
1.0872933e-06
1.1087561e-06
1.1199275e-06
1.1246118e-06
1.1538147e-06
1.3510458e-06
2.7538031e-06
5.5406777e-06
)
;
    }
    frontAndBack
    {
        type            empty;
    }
}


// ************************************************************************* //
