/*--------------------------------*- C++ -*----------------------------------*\
| =========                 |                                                 |
| \\      /  F ield         | OpenFOAM: The Open Source CFD Toolbox           |
|  \\    /   O peration     | Version:  2512                                  |
|   \\  /    A nd           | Website:  www.openfoam.com                      |
|    \\/     M anipulation  |                                                 |
\*---------------------------------------------------------------------------*/
FoamFile
{
    version     2.0;
    format      ascii;
    arch        "LSB;label=32;scalar=64";
    class       volSymmTensorField;
    location    "0.4";
    object      epsilon;
}
// * * * * * * * * * * * * * * * * * * * * * * * * * * * * * * * * * * * * * //

dimensions      [0 0 0 0 0 0 0];

internalField   nonuniform List<symmTensor> 
160
(
(-4.8350452e-06 -1.2055352e-07 1.2924697e-22 1.3718484e-06 6.4623485e-23 0)
(-5.1666669e-06 -2.8099123e-07 -7.7548182e-22 1.4982803e-06 -5.1698788e-22 0)
(-4.8607879e-06 -2.7710636e-07 0 1.4615823e-06 0 0)
(-4.5064998e-06 -2.7634681e-07 2.0679515e-21 1.355186e-06 5.1698788e-21 0)
(-4.1446461e-06 -2.6960411e-07 -1.0339758e-21 1.2462569e-06 -2.0679515e-21 0)
(-3.7932689e-06 -2.6189037e-07 -3.1019273e-21 1.1405497e-06 4.1359031e-21 0)
(-3.4545943e-06 -2.5393718e-07 1.0339758e-21 1.0388703e-06 0 0)
(-3.1289216e-06 -2.4594834e-07 0 9.4114848e-07 4.1359031e-21 0)
(-2.8162131e-06 -2.3795876e-07 6.2038546e-21 8.473299e-07 -2.8951321e-20 0)
(-2.5164053e-06 -2.2997584e-07 -2.0679515e-21 7.5738423e-07 0 0)
(-2.2294316e-06 -2.2200155e-07 -2.0679515e-21 6.7128917e-07 0 0)
(-1.9552214e-06 -2.1403705e-07 0 5.8902303e-07 -1.6543612e-20 0)
(-1.6936984e-06 -2.0608315e-07 -1.0339758e-20 5.1056286e-07 -2.4815418e-20 0)
(-1.4447807e-06 -1.9814074e-07 2.0679515e-21 4.3588406e-07 1.6543612e-20 0)
(-1.2083808e-06 -1.9021052e-07 2.0679515e-21 3.6496037e-07 -1.6543612e-20 0)
(-9.844057e-07 -1.822933e-07 4.1359031e-21 2.9776387e-07 1.1580529e-19 0)
(-7.7275706e-07 -1.7438974e-07 -1.2407709e-20 2.342651e-07 0 0)
(-5.7333173e-07 -1.6650057e-07 8.2718061e-21 1.7443312e-07 -1.6543612e-20 0)
(-3.8602184e-07 -1.5862637e-07 2.0679515e-21 1.182356e-07 3.3087225e-20 0)
(-2.1071527e-07 -1.5076775e-07 -4.1359031e-21 6.5638897e-08 9.9261674e-20 0)
(-4.7295831e-08 -1.429252e-07 -8.2718061e-21 1.6608189e-08 -3.3087225e-20 0)
(1.0435625e-07 -1.3509926e-07 -2.0679515e-21 -2.8892463e-08 9.9261674e-20 0)
(2.4436419e-07 -1.2729037e-07 -2.0679515e-21 -7.0900008e-08 3.3087225e-20 0)
(3.7285416e-07 -1.1949908e-07 8.2718061e-21 -1.0945233e-07 -1.323489e-19 0)
(4.8995525e-07 -1.1172595e-07 -1.0339758e-20 -1.4458816e-07 -1.6543612e-19 0)
(5.957991e-07 -1.0397175e-07 2.0679515e-21 -1.7634716e-07 0 0)
(6.9052038e-07 -9.6237908e-08 -4.1359031e-21 -2.0476985e-07 -6.6174449e-20 0)
(7.742577e-07 -8.8526569e-08 -2.0679515e-21 -2.2989802e-07 -1.6543612e-19 0)
(8.4715479e-07 -8.0840282e-08 -4.1359031e-21 -2.517742e-07 -1.9852335e-19 0)
(9.0935678e-07 -7.3176958e-08 6.2038546e-21 -2.7043995e-07 3.3087225e-20 0)
(9.6099842e-07 -6.5528744e-08 -2.0679515e-21 -2.8593275e-07 1.9852335e-19 0)
(1.0021903e-06 -5.7888623e-08 -6.2038546e-21 -2.9828038e-07 -1.6543612e-19 0)
(1.0330077e-06 -5.0274e-08 -2.0679515e-21 -3.0748655e-07 6.6174449e-20 0)
(1.0534925e-06 -4.277919e-08 -4.1359031e-21 -3.1347195e-07 -3.3087225e-20 0)
(1.0637775e-06 -3.576993e-08 6.2038546e-21 -3.15875e-07 1.9852335e-19 0)
(1.0654595e-06 -3.0734282e-08 4.1359031e-21 -3.1396052e-07 0 0)
(1.0751169e-06 -3.5455405e-08 -2.0679515e-21 -3.0908075e-07 0 0)
(1.1763088e-06 -7.0018944e-08 2.0679515e-21 -3.4902052e-07 0 0)
(2.0242438e-06 -3.0222275e-07 2.0679515e-21 -6.6388313e-07 -1.323489e-19 0)
(3.9966923e-06 1.2598016e-07 6.2038546e-21 -3.940161e-06 1.323489e-19 0)
(-1.866313e-06 -7.8334114e-07 -8.0779357e-23 2.6417348e-07 3.2311743e-23 0)
(-1.7648488e-06 -6.8106671e-07 -1.1632227e-21 5.2374586e-07 -1.5509636e-21 0)
(-1.6352537e-06 -6.3222349e-07 -1.8094576e-21 4.9802189e-07 1.0339758e-21 0)
(-1.5074893e-06 -6.0256548e-07 -1.2924697e-21 4.5680033e-07 2.0679515e-21 0)
(-1.3852763e-06 -5.8100035e-07 -2.8434334e-21 4.1835133e-07 0 0)
(-1.2678676e-06 -5.6124173e-07 -4.6528909e-21 3.8263844e-07 6.2038546e-21 0)
(-1.1549314e-06 -5.4188011e-07 -2.0679515e-21 3.4864438e-07 -8.2718061e-21 0)
(-1.0463571e-06 -5.2262513e-07 -2.0679515e-21 3.1604576e-07 4.1359031e-21 0)
(-9.4210538e-07 -5.0343335e-07 -3.6189152e-21 2.8476011e-07 4.1359031e-21 0)
(-8.4215209e-07 -4.8430362e-07 -3.1019273e-21 2.5476625e-07 -8.2718061e-21 0)
(-7.4647499e-07 -4.652411e-07 -4.1359031e-21 2.2605505e-07 -1.6543612e-20 0)
(-6.5505056e-07 -4.462517e-07 -2.5849394e-21 1.9861905e-07 -2.4815418e-20 0)
(-5.6785345e-07 -4.273413e-07 -3.1019273e-21 1.7245057e-07 2.4815418e-20 0)
(-4.8485641e-07 -4.0851568e-07 -2.0679515e-21 1.4754143e-07 1.6543612e-20 0)
(-4.0603034e-07 -3.8978038e-07 -2.0679515e-21 1.2388292e-07 6.6174449e-20 0)
(-3.3134429e-07 -3.711408e-07 -4.1359031e-21 1.014658e-07 -3.3087225e-20 0)
(-2.6076562e-07 -3.5260201e-07 -4.1359031e-21 8.0280286e-08 -4.9630837e-20 0)
(-1.9426e-07 -3.3416884e-07 -5.1698788e-21 6.0316139e-08 -3.3087225e-20 0)
(-1.3179161e-07 -3.1584579e-07 -3.1019273e-21 4.1562644e-08 -4.9630837e-20 0)
(-7.3323147e-08 -2.9763704e-07 -2.0679515e-21 2.4008657e-08 9.9261674e-20 0)
(-1.8816016e-08 -2.7954645e-07 -2.0679515e-21 7.6426402e-09 -3.3087225e-20 0)
(3.1769625e-08 -2.6157759e-07 -6.2038546e-21 -7.5473205e-09 -9.9261674e-20 0)
(7.8474701e-08 -2.4373378e-07 -5.1698788e-21 -2.1573469e-08 3.3087225e-20 0)
(1.2134115e-07 -2.2601817e-07 -7.2378304e-21 -3.4448364e-08 0 0)
(1.6041183e-07 -2.0843384e-07 -5.1698788e-21 -4.6184848e-08 3.3087225e-20 0)
(1.9573051e-07 -1.9098418e-07 -5.1698788e-21 -5.6796171e-08 -3.3087225e-20 0)
(2.2734204e-07 -1.7367336e-07 -4.1359031e-21 -6.6295993e-08 -3.3087225e-20 0)
(2.5529264e-07 -1.565065e-07 -2.0679515e-21 -7.4698655e-08 -3.3087225e-20 0)
(2.7962937e-07 -1.394863e-07 -5.1698788e-21 -8.2018206e-08 -3.3087225e-20 0)
(3.0039835e-07 -1.2260573e-07 -4.1359031e-21 -8.8266829e-08 6.6174449e-20 0)
(3.1764148e-07 -1.0584393e-07 -6.2038546e-21 -9.3453344e-08 3.3087225e-20 0)
(3.3139383e-07 -8.9174393e-08 -5.1698788e-21 -9.7580983e-08 3.3087225e-20 0)
(3.4167899e-07 -7.2579993e-08 -3.1019273e-21 -1.0063593e-07 0 0)
(3.4848654e-07 -5.6018402e-08 -2.5849394e-21 -1.0250808e-07 -1.323489e-19 0)
(3.5164611e-07 -3.9119228e-08 -6.2038546e-21 -1.0260917e-07 -1.323489e-19 0)
(3.5033291e-07 -1.9691637e-08 -3.1019273e-21 -9.8339248e-08 1.323489e-19 0)
(3.4138698e-07 1.342343e-08 -5.1698788e-21 -8.1060932e-08 -6.6174449e-20 0)
(3.1702475e-07 1.0427217e-07 -3.6189152e-21 -3.3914544e-08 -6.6174449e-20 0)
(2.7232141e-07 4.2052051e-07 -4.1359031e-21 -7.2715572e-08 -3.3087225e-19 0)
(4.7158105e-07 8.5683504e-07 -3.1019273e-21 -1.2586577e-06 6.6174449e-20 0)
(1.8661132e-06 -7.8332772e-07 0 -2.6414722e-07 -1.6155871e-22 0)
(1.7646359e-06 -6.8105974e-07 7.7548182e-22 -5.2368591e-07 -1.0339758e-21 0)
(1.6350369e-06 -6.3221418e-07 -5.1698788e-22 -4.979528e-07 -1.5509636e-21 0)
(1.5072711e-06 -6.0255214e-07 -5.1698788e-22 -4.5672936e-07 8.2718061e-21 0)
(1.3850574e-06 -5.8098301e-07 3.1019273e-21 -4.1828022e-07 -4.1359031e-21 0)
(1.2676484e-06 -5.6122071e-07 -5.1698788e-22 -3.8256746e-07 -4.1359031e-21 0)
(1.1547127e-06 -5.4185565e-07 0 -3.4857362e-07 0 0)
(1.0461396e-06 -5.2259737e-07 5.1698788e-22 -3.1597535e-07 -1.2407709e-20 0)
(9.4188991e-07 -5.0340243e-07 1.0339758e-21 -2.8469025e-07 2.0679515e-20 0)
(8.4193957e-07 -4.8426962e-07 1.0339758e-21 -2.5469717e-07 -1.6543612e-20 0)
(7.462663e-07 -4.6520414e-07 -4.1359031e-21 -2.25987e-07 0 0)
(6.5484658e-07 -4.4621187e-07 1.0339758e-21 -1.9855232e-07 -1.6543612e-20 0)
(5.67655e-07 -4.2729872e-07 -3.1019273e-21 -1.7238546e-07 -3.3087225e-20 0)
(4.8466428e-07 -4.0847045e-07 6.2038546e-21 -1.4747823e-07 -4.9630837e-20 0)
(4.0584524e-07 -3.8973265e-07 -2.0679515e-21 -1.2382193e-07 9.9261674e-20 0)
(3.311669e-07 -3.7109067e-07 -1.0339758e-21 -1.0140726e-07 -3.3087225e-20 0)
(2.6059653e-07 -3.5254963e-07 1.0339758e-21 -8.0224451e-08 -1.6543612e-20 0)
(1.9409978e-07 -3.3411435e-07 0 -6.0263218e-08 -3.3087225e-20 0)
(1.3164072e-07 -3.1578935e-07 2.0679515e-21 -4.1512819e-08 -8.2718061e-20 0)
(7.3182025e-08 -2.9757879e-07 -5.1698788e-21 -2.3962076e-08 1.1580529e-19 0)
(1.8684984e-08 -2.7948656e-07 -1.0339758e-21 -7.5994086e-09 6.6174449e-20 0)
(-3.1890323e-08 -2.6151622e-07 2.0679515e-21 7.5871398e-09 6.6174449e-20 0)
(-7.8585013e-08 -2.4367111e-07 2.0679515e-21 2.1609876e-08 9.9261674e-20 0)
(-1.2144127e-07 -2.2595435e-07 0 3.4481466e-08 -9.9261674e-20 0)
(-1.6050233e-07 -2.0836902e-07 0 4.6214876e-08 3.3087225e-20 0)
(-1.9581241e-07 -1.909185e-07 1.0339758e-21 5.6823346e-08 -3.3087225e-20 0)
(-2.2741666e-07 -1.7360711e-07 2.0679515e-21 6.6319967e-08 0 0)
(-2.5536114e-07 -1.5644038e-07 3.1019273e-21 7.4717398e-08 -3.3087225e-20 0)
(-2.7969272e-07 -1.394208e-07 -2.0679515e-21 8.2028448e-08 -1.6543612e-19 0)
(-3.0045809e-07 -1.2254076e-07 1.0339758e-21 8.8267295e-08 0 0)
(-3.1770117e-07 -1.0577816e-07 2.0679515e-21 9.3449602e-08 3.3087225e-20 0)
(-3.3145865e-07 -8.9106593e-08 2.0679515e-21 9.7586047e-08 0 0)
(-3.4175294e-07 -7.2511597e-08 -1.0339758e-21 1.0066014e-07 6.6174449e-20 0)
(-3.4856656e-07 -5.5952773e-08 -1.0339758e-21 1.0254619e-07 -9.9261674e-20 0)
(-3.5172252e-07 -3.9058275e-08 -5.1698788e-22 1.0264105e-07 0 0)
(-3.5039524e-07 -1.9634267e-08 0 9.834682e-08 -1.9852335e-19 0)
(-3.4143015e-07 1.3480138e-08 -1.0339758e-21 8.1045941e-08 6.6174449e-20 0)
(-3.1705493e-07 1.0432848e-07 1.0339758e-21 3.3894913e-08 1.323489e-19 0)
(-2.7234302e-07 4.2057188e-07 -1.0339758e-21 7.2700205e-08 1.323489e-19 0)
(-4.7158281e-07 8.5686908e-07 -1.5509636e-21 1.2586183e-06 6.6174449e-20 0)
(4.8348688e-06 -1.205465e-07 3.8774091e-22 -1.3718009e-06 -7.7548182e-22 0)
(5.1664716e-06 -2.8098555e-07 2.3264455e-21 -1.4982238e-06 -2.3264455e-21 0)
(4.8605841e-06 -2.7709786e-07 2.5849394e-21 -1.4615199e-06 -3.1019273e-21 0)
(4.5062911e-06 -2.763337e-07 0 -1.3551216e-06 0 0)
(4.1444351e-06 -2.6958683e-07 7.2378304e-21 -1.2461916e-06 2.0679515e-21 0)
(3.7930569e-06 -2.6186935e-07 2.0679515e-21 -1.1404842e-06 -4.1359031e-21 0)
(3.4543824e-06 -2.5391272e-07 1.1373733e-20 -1.0388048e-06 4.1359031e-21 0)
(3.1287107e-06 -2.4592058e-07 -2.0679515e-21 -9.410833e-07 8.2718061e-21 0)
(2.8160041e-06 -2.3792784e-07 4.1359031e-21 -8.4726526e-07 4.5494934e-20 0)
(2.5161991e-06 -2.2994183e-07 4.1359031e-21 -7.5732039e-07 -8.2718061e-21 0)
(2.2292291e-06 -2.2196459e-07 8.2718061e-21 -6.7122638e-07 0 0)
(1.9550233e-06 -2.1399721e-07 1.8611564e-20 -5.8896155e-07 -2.4815418e-20 0)
(1.6935056e-06 -2.0604057e-07 2.0679515e-21 -5.1050294e-07 -3.3087225e-20 0)
(1.444594e-06 -1.980955e-07 0 -4.3582596e-07 4.9630837e-20 0)
(1.2082009e-06 -1.9016278e-07 4.1359031e-21 -3.6490432e-07 -4.9630837e-20 0)
(9.8423318e-07 -1.8224316e-07 2.0679515e-21 -2.9771009e-07 4.9630837e-20 0)
(7.7259255e-07 -1.7433736e-07 1.6543612e-20 -2.3421379e-07 -8.2718061e-20 0)
(5.7317574e-07 -1.6644607e-07 0 -1.7438446e-07 6.6174449e-20 0)
(3.8587487e-07 -1.5856992e-07 -4.1359031e-21 -1.1818975e-07 -8.2718061e-20 0)
(2.1057769e-07 -1.5070949e-07 4.1359031e-21 -6.559598e-08 6.6174449e-20 0)
(4.7167987e-08 -1.4286531e-07 1.0339758e-20 -1.6568303e-08 -3.3087225e-20 0)
(-1.0447418e-07 -1.3503789e-07 2.0679515e-21 2.8929262e-08 -1.323489e-19 0)
(-2.4447214e-07 -1.2722772e-07 8.2718061e-21 7.0933712e-08 -1.6543612e-19 0)
(-3.7295235e-07 -1.1943526e-07 1.6543612e-20 1.0948301e-07 0 0)
(-4.9004412e-07 -1.1166112e-07 1.6543612e-20 1.4461596e-07 0 0)
(-5.9587932e-07 -1.0390596e-07 2.2747467e-20 1.7637221e-07 3.3087225e-20 0)
(-6.9059279e-07 -9.6171467e-08 4.1359031e-21 2.0479209e-07 3.3087225e-20 0)
(-7.7432409e-07 -8.8460462e-08 0 2.2991686e-07 9.9261674e-20 0)
(-8.4721829e-07 -8.0775167e-08 8.2718061e-21 2.5178902e-07 -1.323489e-19 0)
(-9.0942145e-07 -7.3112782e-08 2.0679515e-20 2.7045151e-07 9.9261674e-20 0)
(-9.6106709e-07 -6.546332e-08 8.2718061e-21 2.8594453e-07 1.6543612e-19 0)
(-1.0022615e-06 -5.7819817e-08 1.0339758e-20 2.982975e-07 -9.9261674e-20 0)
(-1.0330788e-06 -5.0203919e-08 -2.0679515e-21 3.0751131e-07 -6.6174449e-20 0)
(-1.0535615e-06 -4.2712877e-08 0 3.1350031e-07 -2.3161057e-19 0)
(-1.0638456e-06 -3.5710176e-08 2.0679515e-21 3.1589863e-07 0 0)
(-1.0655279e-06 -3.0679093e-08 1.4475661e-20 3.1397331e-07 2.646978e-19 0)
(-1.0751785e-06 -3.5399086e-08 8.2718061e-21 3.0908433e-07 -1.323489e-19 0)
(-1.1763523e-06 -6.9960663e-08 6.2038546e-21 3.4902139e-07 -1.323489e-19 0)
(-2.024267e-06 -3.0216954e-07 8.2718061e-21 6.6388428e-07 6.6174449e-20 0)
(-3.9967026e-06 1.2601062e-07 8.2718061e-21 3.9401722e-06 6.6174449e-20 0)
)
;

boundaryField
{
    left
    {
        type            calculated;
        value           nonuniform List<symmTensor> 4((-5.9429393e-06 -3.9711259e-07 0 1.2600545e-06 0 0) (-1.671183e-06 -5.9663794e-07 0 0 0 0) (1.670997e-06 -5.9661922e-07 0 0 0 0) (5.9427384e-06 -3.9708265e-07 0 -1.2600115e-06 0 0));
    }
    right
    {
        type            calculated;
        value           nonuniform List<symmTensor> 4((2.0816229e-06 1.8438851e-08 0 -6.9442477e-06 0 0) (7.1109673e-07 2.7584466e-08 0 -2.3721761e-06 0 0) (-7.1107725e-07 2.7584261e-08 0 2.3721113e-06 0 0) (-2.0816293e-06 1.8438625e-08 0 6.9442689e-06 0 0));
    }
    top
    {
        type            calculated;
        value           nonuniform List<symmTensor> 
40
(
(5.9374109e-06 -1.3261076e-09 0 -1.7807107e-06 0 0)
(6.8035623e-06 -2.5414195e-09 0 -2.0404209e-06 0 0)
(6.4509835e-06 -4.0556962e-09 0 -1.9346294e-06 0 0)
(5.9979288e-06 -5.645407e-09 0 -1.7987132e-06 0 0)
(5.5186442e-06 -7.2319638e-09 0 -1.6549344e-06 0 0)
(5.0507057e-06 -8.8005615e-09 0 -1.5145617e-06 0 0)
(4.5992284e-06 -1.0345447e-08 0 -1.3791293e-06 0 0)
(4.1650317e-06 -1.1862395e-08 0 -1.2488828e-06 0 0)
(3.748119e-06 -1.3347371e-08 0 -1.1238232e-06 0 0)
(3.3484112e-06 -1.4796423e-08 0 -1.0039266e-06 0 0)
(2.9658197e-06 -1.6205697e-08 0 -8.8916653e-07 0 0)
(2.60025e-06 -1.7571455e-08 0 -7.7951455e-07 0 0)
(2.2516006e-06 -1.8890088e-08 0 -6.7494011e-07 0 0)
(1.9197621e-06 -2.015812e-08 0 -5.7541037e-07 0 0)
(1.6046175e-06 -2.1372226e-08 0 -4.8089017e-07 0 0)
(1.3060427e-06 -2.2529234e-08 0 -3.9134218e-07 0 0)
(1.0239064e-06 -2.3626137e-08 0 -3.0672697e-07 0 0)
(7.5807078e-07 -2.4660098e-08 0 -2.2700311e-07 0 0)
(5.0839189e-07 -2.5628458e-08 0 -1.5212735e-07 0 0)
(2.747199e-07 -2.6528743e-08 0 -8.2054645e-08 0 0)
(5.6899701e-08 -2.7358667e-08 0 -1.6738395e-08 0 0)
(-1.4522875e-07 -2.811614e-08 0 4.3869498e-08 0 0)
(-3.3183002e-07 -2.8799269e-08 0 9.9818486e-08 0 0)
(-5.0307273e-07 -2.9406363e-08 0 1.5115924e-07 0 0)
(-6.5912927e-07 -2.9935934e-08 0 1.9794357e-07 0 0)
(-8.0017516e-07 -3.0386699e-08 0 2.4022421e-07 0 0)
(-9.2638997e-07 -3.0757581e-08 0 2.7805512e-07 0 0)
(-1.0379604e-06 -3.1047711e-08 0 3.1149242e-07 0 0)
(-1.1350827e-06 -3.125645e-08 0 3.4059505e-07 0 0)
(-1.2179559e-06 -3.1383424e-08 0 3.6542283e-07 0 0)
(-1.2867606e-06 -3.1428517e-08 0 3.8603e-07 0 0)
(-1.3416373e-06 -3.1391804e-08 0 4.0245883e-07 0 0)
(-1.3826888e-06 -3.1273456e-08 0 4.1474019e-07 0 0)
(-1.4100309e-06 -3.1073832e-08 0 4.2290891e-07 0 0)
(-1.4242849e-06 -3.0793748e-08 0 4.271514e-07 0 0)
(-1.4302951e-06 -3.0432906e-08 0 4.2892e-07 0 0)
(-1.4675151e-06 -2.9973482e-08 0 4.4004145e-07 0 0)
(-1.7186073e-06 -2.9238739e-08 0 5.1527068e-07 0 0)
(-3.5038572e-06 -2.7408805e-08 0 1.0503769e-06 0 0)
(-7.050238e-06 -1.8258699e-08 0 2.1133985e-06 0 0)
)
;
    }
    bottom
    {
        type            calculated;
        value           nonuniform List<symmTensor> 
40
(
(-5.9375647e-06 -1.3259606e-09 0 1.7807569e-06 0 0)
(-6.8037453e-06 -2.5413627e-09 0 2.0404759e-06 0 0)
(-6.4511793e-06 -4.0556815e-09 0 1.9346882e-06 0 0)
(-5.9981323e-06 -5.6454037e-09 0 1.7987744e-06 0 0)
(-5.5188511e-06 -7.2319634e-09 0 1.6549965e-06 0 0)
(-5.0509139e-06 -8.8005621e-09 0 1.5146243e-06 0 0)
(-4.5994367e-06 -1.0345448e-08 0 1.3791919e-06 0 0)
(-4.1652392e-06 -1.1862398e-08 0 1.2489452e-06 0 0)
(-3.7483247e-06 -1.3347375e-08 0 1.123885e-06 0 0)
(-3.3486142e-06 -1.4796428e-08 0 1.0039876e-06 0 0)
(-2.9660191e-06 -1.6205703e-08 0 8.8922646e-07 0 0)
(-2.6004451e-06 -1.7571463e-08 0 7.7957316e-07 0 0)
(-2.2517904e-06 -1.8890097e-08 0 6.7499716e-07 0 0)
(-1.919946e-06 -2.015813e-08 0 5.7546563e-07 0 0)
(-1.6047948e-06 -2.1372237e-08 0 4.8094344e-07 0 0)
(-1.3062127e-06 -2.2529247e-08 0 3.9139327e-07 0 0)
(-1.0240685e-06 -2.362615e-08 0 3.067757e-07 0 0)
(-7.582246e-07 -2.4660112e-08 0 2.2704934e-07 0 0)
(-5.0853687e-07 -2.5628473e-08 0 1.5217091e-07 0 0)
(-2.7485568e-07 -2.6528758e-08 0 8.2095443e-08 0 0)
(-5.7025935e-08 -2.7358683e-08 0 1.6776325e-08 0 0)
(1.4511221e-07 -2.8116156e-08 0 -4.3834482e-08 0 0)
(3.3172321e-07 -2.8799285e-08 0 -9.9786395e-08 0 0)
(5.0297545e-07 -2.9406378e-08 0 -1.5113002e-07 0 0)
(6.5904117e-07 -2.9935947e-08 0 -1.979171e-07 0 0)
(8.0009584e-07 -3.0386712e-08 0 -2.4020038e-07 0 0)
(9.2631898e-07 -3.0757597e-08 0 -2.7803379e-07 0 0)
(1.0378956e-06 -3.1047736e-08 0 -3.1147294e-07 0 0)
(1.1350192e-06 -3.1256483e-08 0 -3.4057597e-07 0 0)
(1.2178877e-06 -3.138345e-08 0 -3.6540231e-07 0 0)
(1.2866852e-06 -3.1428509e-08 0 -3.8600734e-07 0 0)
(1.3415614e-06 -3.1391747e-08 0 -4.0243602e-07 0 0)
(1.3826203e-06 -3.1273389e-08 0 -4.1471963e-07 0 0)
(1.4099709e-06 -3.1073817e-08 0 -4.2289089e-07 0 0)
(1.424224e-06 -3.0793811e-08 0 -4.271331e-07 0 0)
(1.4302233e-06 -3.0433002e-08 0 -4.2889841e-07 0 0)
(1.4674413e-06 -2.997353e-08 0 -4.4001926e-07 0 0)
(1.7185556e-06 -2.9238723e-08 0 -5.1525515e-07 0 0)
(3.5038356e-06 -2.7408799e-08 0 -1.0503704e-06 0 0)
(7.050224e-06 -1.825877e-08 0 -2.1133943e-06 0 0)
)
;
    }
    frontAndBack
    {
        type            empty;
    }
}


// ************************************************************************* //
