/*--------------------------------*- C++ -*----------------------------------*\
| =========                 |                                                 |
| \\      /  F ield         | OpenFOAM: The Open Source CFD Toolbox           |
|  \\    /   O peration     | Version:  2512                                  |
|   \\  /    A nd           | Website:  www.openfoam.com                      |
|    \\/     M anipulation  |                                                 |
\*---------------------------------------------------------------------------*/
FoamFile
{
    version     2.0;
    format      ascii;
    arch        "LSB;label=32;scalar=64";
    class       pointVectorField;
    location    "0.4";
    object      pointD;
}
// * * * * * * * * * * * * * * * * * * * * * * * * * * * * * * * * * * * * * //

dimensions      [0 1 0 0 0 0 0];

internalField   nonuniform List<vector> 
410
(
(-6.1630898e-08 -3.1501362e-08 0)
(-2.1007001e-07 -1.2951777e-07 0)
(-3.8016365e-07 -3.0161711e-07 0)
(-5.4144313e-07 -5.5255961e-07 0)
(-6.9139644e-07 -8.8042162e-07 0)
(-8.2936772e-07 -1.2796222e-06 0)
(-9.5564057e-07 -1.7442841e-06 0)
(-1.0706265e-06 -2.2686605e-06 0)
(-1.1747575e-06 -2.8472155e-06 0)
(-1.2684656e-06 -3.4746302e-06 0)
(-1.3521809e-06 -4.1458022e-06 0)
(-1.4263314e-06 -4.8558433e-06 0)
(-1.4913425e-06 -5.6000791e-06 0)
(-1.5476373e-06 -6.3740476e-06 0)
(-1.595636e-06 -7.1734976e-06 0)
(-1.6357558e-06 -7.9943872e-06 0)
(-1.6684111e-06 -8.832883e-06 0)
(-1.6940129e-06 -9.6853575e-06 0)
(-1.7129685e-06 -1.0548388e-05 0)
(-1.7256819e-06 -1.1418756e-05 0)
(-1.7325533e-06 -1.2293442e-05 0)
(-1.7339789e-06 -1.3169627e-05 0)
(-1.7303511e-06 -1.4044688e-05 0)
(-1.722058e-06 -1.49162e-05 0)
(-1.7094837e-06 -1.5781928e-05 0)
(-1.6930076e-06 -1.663983e-05 0)
(-1.6730052e-06 -1.7488052e-05 0)
(-1.6498473e-06 -1.8324926e-05 0)
(-1.6238999e-06 -1.9148969e-05 0)
(-1.5955244e-06 -1.9958881e-05 0)
(-1.5650772e-06 -2.075354e-05 0)
(-1.5329101e-06 -2.1532e-05 0)
(-1.499371e-06 -2.2293491e-05 0)
(-1.4648055e-06 -2.3037416e-05 0)
(-1.4295563e-06 -2.3763355e-05 0)
(-1.3939507e-06 -2.4471069e-05 0)
(-1.3581951e-06 -2.5160461e-05 0)
(-1.321509e-06 -2.5831176e-05 0)
(-1.2785451e-06 -2.6479119e-05 0)
(-1.1909493e-06 -2.7082389e-05 0)
(-1.0146937e-06 -2.7482624e-05 0)
(0 0 0)
(-9.3313144e-08 -9.2426714e-08 0)
(-1.8155286e-07 -2.6379415e-07 0)
(-2.6331277e-07 -5.1730345e-07 0)
(-3.3868445e-07 -8.4791847e-07 0)
(-4.0794548e-07 -1.2498125e-06 0)
(-4.7133608e-07 -1.7170663e-06 0)
(-5.2907987e-07 -2.2439348e-06 0)
(-5.8139497e-07 -2.8248838e-06 0)
(-6.284975e-07 -3.4545955e-06 0)
(-6.7060241e-07 -4.1279677e-06 0)
(-7.0792352e-07 -4.8401132e-06 0)
(-7.4067346e-07 -5.586358e-06 0)
(-7.6906362e-07 -6.3622406e-06 0)
(-7.93304e-07 -7.1635104e-06 0)
(-8.1360317e-07 -7.9861264e-06 0)
(-8.3016814e-07 -8.8262556e-06 0)
(-8.4320428e-07 -9.6802716e-06 0)
(-8.5291525e-07 -1.0544753e-05 0)
(-8.5950292e-07 -1.141648e-05 0)
(-8.6316729e-07 -1.2292436e-05 0)
(-8.6410644e-07 -1.3169802e-05 0)
(-8.6251643e-07 -1.4045957e-05 0)
(-8.585913e-07 -1.4918476e-05 0)
(-8.5252298e-07 -1.5785125e-05 0)
(-8.4450124e-07 -1.6643863e-05 0)
(-8.3471369e-07 -1.7492836e-05 0)
(-8.2334564e-07 -1.8330379e-05 0)
(-8.1058015e-07 -1.915501e-05 0)
(-7.9659789e-07 -1.9965429e-05 0)
(-7.8157724e-07 -2.0760514e-05 0)
(-7.6569445e-07 -2.1539322e-05 0)
(-7.4912397e-07 -2.2301083e-05 0)
(-7.3203909e-07 -2.3045199e-05 0)
(-7.1461374e-07 -2.3771246e-05 0)
(-6.9703046e-07 -2.4478972e-05 0)
(-6.7951307e-07 -2.5168256e-05 0)
(-6.6244326e-07 -2.5838834e-05 0)
(-6.4659171e-07 -2.6488912e-05 0)
(-6.3297541e-07 -2.7105791e-05 0)
(-6.0939639e-07 -2.765623e-05 0)
(0 0 0)
(-2.5041298e-12 -7.921804e-08 0)
(-5.231484e-12 -2.5081554e-07 0)
(-8.006398e-12 -5.0538098e-07 0)
(-1.0789314e-11 -8.3700093e-07 0)
(-1.3574048e-11 -1.2398125e-06 0)
(-1.6357507e-11 -1.7079345e-06 0)
(-1.9133725e-11 -2.2356345e-06 0)
(-2.1893568e-11 -2.8173818e-06 0)
(-2.4626738e-11 -3.4478594e-06 0)
(-2.7321846e-11 -4.1219655e-06 0)
(-2.9967929e-11 -4.8348127e-06 0)
(-3.2553732e-11 -5.5817275e-06 0)
(-3.506908e-11 -6.3582485e-06 0)
(-3.7503785e-11 -7.1601254e-06 0)
(-3.9849044e-11 -7.9833172e-06 0)
(-4.2096084e-11 -8.8239915e-06 0)
(-4.4237619e-11 -9.6785218e-06 0)
(-4.6266346e-11 -1.0543487e-05 0)
(-4.8176507e-11 -1.1415668e-05 0)
(-4.9962377e-11 -1.2292048e-05 0)
(-5.1620018e-11 -1.3169808e-05 0)
(-5.3146068e-11 -1.4046329e-05 0)
(-5.4539968e-11 -1.4919183e-05 0)
(-5.5803985e-11 -1.578614e-05 0)
(-5.6946007e-11 -1.6645157e-05 0)
(-5.7979593e-11 -1.7494382e-05 0)
(-5.8922081e-11 -1.8332149e-05 0)
(-5.9785396e-11 -1.9156976e-05 0)
(-6.0575507e-11 -1.9967564e-05 0)
(-6.1305531e-11 -2.0762792e-05 0)
(-6.2024009e-11 -2.1541717e-05 0)
(-6.2814425e-11 -2.2303567e-05 0)
(-6.3742467e-11 -2.3047746e-05 0)
(-6.4766618e-11 -2.3773824e-05 0)
(-6.5735937e-11 -2.4481524e-05 0)
(-6.6482452e-11 -2.5170621e-05 0)
(-6.694547e-11 -2.5840523e-05 0)
(-6.7258101e-11 -2.6488919e-05 0)
(-6.7489358e-11 -2.710942e-05 0)
(-6.7451131e-11 -2.7715534e-05 0)
(0 0 0)
(9.3308165e-08 -9.2425401e-08 0)
(1.8154269e-07 -2.6379247e-07 0)
(2.6329731e-07 -5.1730168e-07 0)
(3.3866364e-07 -8.4791669e-07 0)
(4.079193e-07 -1.2498107e-06 0)
(4.713045e-07 -1.7170646e-06 0)
(5.2904291e-07 -2.243933e-06 0)
(5.8135265e-07 -2.824882e-06 0)
(6.2844988e-07 -3.4545937e-06 0)
(6.7054956e-07 -4.127966e-06 0)
(7.0786552e-07 -4.8401115e-06 0)
(7.4061043e-07 -5.5863564e-06 0)
(7.689957e-07 -6.362239e-06 0)
(7.9323135e-07 -7.1635088e-06 0)
(8.1352595e-07 -7.9861249e-06 0)
(8.3008655e-07 -8.8262542e-06 0)
(8.4311851e-07 -9.6802702e-06 0)
(8.5282553e-07 -1.0544751e-05 0)
(8.5940948e-07 -1.1416479e-05 0)
(8.6307037e-07 -1.2292435e-05 0)
(8.6400627e-07 -1.3169801e-05 0)
(8.6241328e-07 -1.4045956e-05 0)
(8.5848543e-07 -1.4918475e-05 0)
(8.5241463e-07 -1.5785124e-05 0)
(8.4439065e-07 -1.6643862e-05 0)
(8.3460106e-07 -1.7492836e-05 0)
(8.2323117e-07 -1.8330379e-05 0)
(8.1046398e-07 -1.915501e-05 0)
(7.9648013e-07 -1.9965428e-05 0)
(7.8145796e-07 -2.0760514e-05 0)
(7.6557362e-07 -2.1539322e-05 0)
(7.4900148e-07 -2.2301082e-05 0)
(7.3191476e-07 -2.3045198e-05 0)
(7.1448746e-07 -2.3771245e-05 0)
(6.969023e-07 -2.4478971e-05 0)
(6.7938328e-07 -2.5168256e-05 0)
(6.6231224e-07 -2.5838835e-05 0)
(6.464598e-07 -2.6488912e-05 0)
(6.3284288e-07 -2.7105792e-05 0)
(6.0926371e-07 -2.7656232e-05 0)
(6.1629256e-08 -3.1500289e-08 0)
(2.1006453e-07 -1.2951516e-07 0)
(3.8015359e-07 -3.016139e-07 0)
(5.4142817e-07 -5.5255624e-07 0)
(6.9137639e-07 -8.8041821e-07 0)
(8.293425e-07 -1.2796188e-06 0)
(9.5561014e-07 -1.7442807e-06 0)
(1.0705908e-06 -2.2686571e-06 0)
(1.1747166e-06 -2.8472121e-06 0)
(1.2684196e-06 -3.4746269e-06 0)
(1.3521299e-06 -4.1457989e-06 0)
(1.4262754e-06 -4.85584e-06 0)
(1.4912816e-06 -5.600076e-06 0)
(1.5475717e-06 -6.3740446e-06 0)
(1.5955657e-06 -7.1734946e-06 0)
(1.6356811e-06 -7.9943844e-06 0)
(1.6683322e-06 -8.8328802e-06 0)
(1.6939299e-06 -9.6853549e-06 0)
(1.7128816e-06 -1.0548386e-05 0)
(1.7255914e-06 -1.1418754e-05 0)
(1.7324594e-06 -1.229344e-05 0)
(1.7338819e-06 -1.3169625e-05 0)
(1.7302512e-06 -1.4044686e-05 0)
(1.7219555e-06 -1.4916198e-05 0)
(1.7093786e-06 -1.5781927e-05 0)
(1.6929004e-06 -1.6639829e-05 0)
(1.672896e-06 -1.7488051e-05 0)
(1.6497363e-06 -1.8324925e-05 0)
(1.6237873e-06 -1.9148968e-05 0)
(1.5954102e-06 -1.995888e-05 0)
(1.5649613e-06 -2.0753539e-05 0)
(1.5327923e-06 -2.1532e-05 0)
(1.4992514e-06 -2.229349e-05 0)
(1.4646841e-06 -2.3037414e-05 0)
(1.4294334e-06 -2.3763353e-05 0)
(1.3938262e-06 -2.4471068e-05 0)
(1.3580689e-06 -2.5160461e-05 0)
(1.321381e-06 -2.5831176e-05 0)
(1.2784158e-06 -2.647912e-05 0)
(1.1908194e-06 -2.708239e-05 0)
(1.0145634e-06 -2.7482625e-05 0)
(-6.1630898e-08 -3.1501362e-08 0)
(-2.1007001e-07 -1.2951777e-07 0)
(-3.8016365e-07 -3.0161711e-07 0)
(-5.4144313e-07 -5.5255961e-07 0)
(-6.9139644e-07 -8.8042162e-07 0)
(-8.2936772e-07 -1.2796222e-06 0)
(-9.5564057e-07 -1.7442841e-06 0)
(-1.0706265e-06 -2.2686605e-06 0)
(-1.1747575e-06 -2.8472155e-06 0)
(-1.2684656e-06 -3.4746302e-06 0)
(-1.3521809e-06 -4.1458022e-06 0)
(-1.4263314e-06 -4.8558433e-06 0)
(-1.4913425e-06 -5.6000791e-06 0)
(-1.5476373e-06 -6.3740476e-06 0)
(-1.595636e-06 -7.1734976e-06 0)
(-1.6357558e-06 -7.9943872e-06 0)
(-1.6684111e-06 -8.832883e-06 0)
(-1.6940129e-06 -9.6853575e-06 0)
(-1.7129685e-06 -1.0548388e-05 0)
(-1.7256819e-06 -1.1418756e-05 0)
(-1.7325533e-06 -1.2293442e-05 0)
(-1.7339789e-06 -1.3169627e-05 0)
(-1.7303511e-06 -1.4044688e-05 0)
(-1.722058e-06 -1.49162e-05 0)
(-1.7094837e-06 -1.5781928e-05 0)
(-1.6930076e-06 -1.663983e-05 0)
(-1.6730052e-06 -1.7488052e-05 0)
(-1.6498473e-06 -1.8324926e-05 0)
(-1.6238999e-06 -1.9148969e-05 0)
(-1.5955244e-06 -1.9958881e-05 0)
(-1.5650772e-06 -2.075354e-05 0)
(-1.5329101e-06 -2.1532e-05 0)
(-1.499371e-06 -2.2293491e-05 0)
(-1.4648055e-06 -2.3037416e-05 0)
(-1.4295563e-06 -2.3763355e-05 0)
(-1.3939507e-06 -2.4471069e-05 0)
(-1.3581951e-06 -2.5160461e-05 0)
(-1.321509e-06 -2.5831176e-05 0)
(-1.2785451e-06 -2.6479119e-05 0)
(-1.1909493e-06 -2.7082389e-05 0)
(-1.0146937e-06 -2.7482624e-05 0)
(0 0 0)
(-9.3313144e-08 -9.2426714e-08 0)
(-1.8155286e-07 -2.6379415e-07 0)
(-2.6331277e-07 -5.1730345e-07 0)
(-3.3868445e-07 -8.4791847e-07 0)
(-4.0794548e-07 -1.2498125e-06 0)
(-4.7133608e-07 -1.7170663e-06 0)
(-5.2907987e-07 -2.2439348e-06 0)
(-5.8139497e-07 -2.8248838e-06 0)
(-6.284975e-07 -3.4545955e-06 0)
(-6.7060241e-07 -4.1279677e-06 0)
(-7.0792352e-07 -4.8401132e-06 0)
(-7.4067346e-07 -5.586358e-06 0)
(-7.6906362e-07 -6.3622406e-06 0)
(-7.93304e-07 -7.1635104e-06 0)
(-8.1360317e-07 -7.9861264e-06 0)
(-8.3016814e-07 -8.8262556e-06 0)
(-8.4320428e-07 -9.6802716e-06 0)
(-8.5291525e-07 -1.0544753e-05 0)
(-8.5950292e-07 -1.141648e-05 0)
(-8.6316729e-07 -1.2292436e-05 0)
(-8.6410644e-07 -1.3169802e-05 0)
(-8.6251643e-07 -1.4045957e-05 0)
(-8.585913e-07 -1.4918476e-05 0)
(-8.5252298e-07 -1.5785125e-05 0)
(-8.4450124e-07 -1.6643863e-05 0)
(-8.3471369e-07 -1.7492836e-05 0)
(-8.2334564e-07 -1.8330379e-05 0)
(-8.1058015e-07 -1.915501e-05 0)
(-7.9659789e-07 -1.9965429e-05 0)
(-7.8157724e-07 -2.0760514e-05 0)
(-7.6569445e-07 -2.1539322e-05 0)
(-7.4912397e-07 -2.2301083e-05 0)
(-7.3203909e-07 -2.3045199e-05 0)
(-7.1461374e-07 -2.3771246e-05 0)
(-6.9703046e-07 -2.4478972e-05 0)
(-6.7951307e-07 -2.5168256e-05 0)
(-6.6244326e-07 -2.5838834e-05 0)
(-6.4659171e-07 -2.6488912e-05 0)
(-6.3297541e-07 -2.7105791e-05 0)
(-6.0939639e-07 -2.765623e-05 0)
(0 0 0)
(-2.5041298e-12 -7.921804e-08 0)
(-5.231484e-12 -2.5081554e-07 0)
(-8.006398e-12 -5.0538098e-07 0)
(-1.0789314e-11 -8.3700093e-07 0)
(-1.3574048e-11 -1.2398125e-06 0)
(-1.6357507e-11 -1.7079345e-06 0)
(-1.9133725e-11 -2.2356345e-06 0)
(-2.1893568e-11 -2.8173818e-06 0)
(-2.4626738e-11 -3.4478594e-06 0)
(-2.7321846e-11 -4.1219655e-06 0)
(-2.9967929e-11 -4.8348127e-06 0)
(-3.2553732e-11 -5.5817275e-06 0)
(-3.506908e-11 -6.3582485e-06 0)
(-3.7503785e-11 -7.1601254e-06 0)
(-3.9849044e-11 -7.9833172e-06 0)
(-4.2096084e-11 -8.8239915e-06 0)
(-4.4237619e-11 -9.6785218e-06 0)
(-4.6266346e-11 -1.0543487e-05 0)
(-4.8176507e-11 -1.1415668e-05 0)
(-4.9962377e-11 -1.2292048e-05 0)
(-5.1620018e-11 -1.3169808e-05 0)
(-5.3146068e-11 -1.4046329e-05 0)
(-5.4539968e-11 -1.4919183e-05 0)
(-5.5803985e-11 -1.578614e-05 0)
(-5.6946007e-11 -1.6645157e-05 0)
(-5.7979593e-11 -1.7494382e-05 0)
(-5.8922081e-11 -1.8332149e-05 0)
(-5.9785396e-11 -1.9156976e-05 0)
(-6.0575507e-11 -1.9967564e-05 0)
(-6.1305531e-11 -2.0762792e-05 0)
(-6.2024009e-11 -2.1541717e-05 0)
(-6.2814425e-11 -2.2303567e-05 0)
(-6.3742467e-11 -2.3047746e-05 0)
(-6.4766618e-11 -2.3773824e-05 0)
(-6.5735937e-11 -2.4481524e-05 0)
(-6.6482452e-11 -2.5170621e-05 0)
(-6.694547e-11 -2.5840523e-05 0)
(-6.7258101e-11 -2.6488919e-05 0)
(-6.7489358e-11 -2.710942e-05 0)
(-6.7451131e-11 -2.7715534e-05 0)
(0 0 0)
(9.3308165e-08 -9.2425401e-08 0)
(1.8154269e-07 -2.6379247e-07 0)
(2.6329731e-07 -5.1730168e-07 0)
(3.3866364e-07 -8.4791669e-07 0)
(4.079193e-07 -1.2498107e-06 0)
(4.713045e-07 -1.7170646e-06 0)
(5.2904291e-07 -2.243933e-06 0)
(5.8135265e-07 -2.824882e-06 0)
(6.2844988e-07 -3.4545937e-06 0)
(6.7054956e-07 -4.127966e-06 0)
(7.0786552e-07 -4.8401115e-06 0)
(7.4061043e-07 -5.5863564e-06 0)
(7.689957e-07 -6.362239e-06 0)
(7.9323135e-07 -7.1635088e-06 0)
(8.1352595e-07 -7.9861249e-06 0)
(8.3008655e-07 -8.8262542e-06 0)
(8.4311851e-07 -9.6802702e-06 0)
(8.5282553e-07 -1.0544751e-05 0)
(8.5940948e-07 -1.1416479e-05 0)
(8.6307037e-07 -1.2292435e-05 0)
(8.6400627e-07 -1.3169801e-05 0)
(8.6241328e-07 -1.4045956e-05 0)
(8.5848543e-07 -1.4918475e-05 0)
(8.5241463e-07 -1.5785124e-05 0)
(8.4439065e-07 -1.6643862e-05 0)
(8.3460106e-07 -1.7492836e-05 0)
(8.2323117e-07 -1.8330379e-05 0)
(8.1046398e-07 -1.915501e-05 0)
(7.9648013e-07 -1.9965428e-05 0)
(7.8145796e-07 -2.0760514e-05 0)
(7.6557362e-07 -2.1539322e-05 0)
(7.4900148e-07 -2.2301082e-05 0)
(7.3191476e-07 -2.3045198e-05 0)
(7.1448746e-07 -2.3771245e-05 0)
(6.969023e-07 -2.4478971e-05 0)
(6.7938328e-07 -2.5168256e-05 0)
(6.6231224e-07 -2.5838835e-05 0)
(6.464598e-07 -2.6488912e-05 0)
(6.3284288e-07 -2.7105792e-05 0)
(6.0926371e-07 -2.7656232e-05 0)
(6.1629256e-08 -3.1500289e-08 0)
(2.1006453e-07 -1.2951516e-07 0)
(3.8015359e-07 -3.016139e-07 0)
(5.4142817e-07 -5.5255624e-07 0)
(6.9137639e-07 -8.8041821e-07 0)
(8.293425e-07 -1.2796188e-06 0)
(9.5561014e-07 -1.7442807e-06 0)
(1.0705908e-06 -2.2686571e-06 0)
(1.1747166e-06 -2.8472121e-06 0)
(1.2684196e-06 -3.4746269e-06 0)
(1.3521299e-06 -4.1457989e-06 0)
(1.4262754e-06 -4.85584e-06 0)
(1.4912816e-06 -5.600076e-06 0)
(1.5475717e-06 -6.3740446e-06 0)
(1.5955657e-06 -7.1734946e-06 0)
(1.6356811e-06 -7.9943844e-06 0)
(1.6683322e-06 -8.8328802e-06 0)
(1.6939299e-06 -9.6853549e-06 0)
(1.7128816e-06 -1.0548386e-05 0)
(1.7255914e-06 -1.1418754e-05 0)
(1.7324594e-06 -1.229344e-05 0)
(1.7338819e-06 -1.3169625e-05 0)
(1.7302512e-06 -1.4044686e-05 0)
(1.7219555e-06 -1.4916198e-05 0)
(1.7093786e-06 -1.5781927e-05 0)
(1.6929004e-06 -1.6639829e-05 0)
(1.672896e-06 -1.7488051e-05 0)
(1.6497363e-06 -1.8324925e-05 0)
(1.6237873e-06 -1.9148968e-05 0)
(1.5954102e-06 -1.995888e-05 0)
(1.5649613e-06 -2.0753539e-05 0)
(1.5327923e-06 -2.1532e-05 0)
(1.4992514e-06 -2.229349e-05 0)
(1.4646841e-06 -2.3037414e-05 0)
(1.4294334e-06 -2.3763353e-05 0)
(1.3938262e-06 -2.4471068e-05 0)
(1.3580689e-06 -2.5160461e-05 0)
(1.321381e-06 -2.5831176e-05 0)
(1.2784158e-06 -2.647912e-05 0)
(1.1908194e-06 -2.708239e-05 0)
(1.0145634e-06 -2.7482625e-05 0)
)
;

boundaryField
{
    left
    {
        type            calculated;
    }
    right
    {
        type            calculated;
    }
    top
    {
        type            calculated;
    }
    bottom
    {
        type            calculated;
    }
    frontAndBack
    {
        type            empty;
    }
}


// ************************************************************************* //
