/*--------------------------------*- C++ -*----------------------------------*\
| =========                 |                                                 |
| \\      /  F ield         | OpenFOAM: The Open Source CFD Toolbox           |
|  \\    /   O peration     | Version:  2512                                  |
|   \\  /    A nd           | Website:  www.openfoam.com                      |
|    \\/     M anipulation  |                                                 |
\*---------------------------------------------------------------------------*/
FoamFile
{
    version     2.0;
    format      ascii;
    arch        "LSB;label=32;scalar=64";
    class       volScalarField;
    location    "0.4";
    object      sigmaHyd;
}
// * * * * * * * * * * * * * * * * * * * * * * * * * * * * * * * * * * * * * //

dimensions      [1 -1 -2 0 0 0 0];

internalField   nonuniform List<scalar> 
160
(
-329828.27
-349370.16
-323733.87
-300125.12
-276037.08
-252639.92
-230068.95
-208359.34
-187512.68
-167525.82
-148394.52
-130114.13
-112679.57
-96085.395
-80325.758
-65394.461
-51284.948
-37990.343
-25503.452
-13816.797
-2922.6325
7187.0276
16520.398
25085.889
32892.103
39947.804
46261.955
51843.778
56702.913
60849.222
64291.969
67039.042
69097.254
70478.145
71228.807
71571.33
72955.823
78789.362
129558.16
5383.9305
-152584.71
-118200.28
-108307.8
-100065.62
-92088.09
-84307.535
-76789.241
-69553.465
-62604.312
-55941.508
-49563.804
-43469.667
-37657.417
-32125.236
-26871.182
-21893.19
-17189.079
-12756.558
-8593.2348
-4696.6181
-1064.131
2306.8862
5419.1649
8275.5037
10878.76
13231.841
15337.718
17199.427
18820.111
20203.002
21351.251
22267.89
22956.482
23426.52
23717.803
23999.396
24792.957
26962.877
19010.08
-74959.684
152568.19
118185.72
108293.72
100051.59
92074.013
84293.426
76775.151
69539.454
62590.444
55927.847
49550.409
43456.596
37644.718
32112.957
26859.364
21881.871
17178.293
12746.339
8583.6096
4687.6142
1055.7691
-2314.5889
-5426.2036
-8281.8858
-10884.519
-13237.053
-15342.542
-17204.166
-18825.169
-20208.647
-21357.292
-22273.581
-22961.219
-23430.511
-23722.045
-24004.612
-24798.497
-26967.621
-19013.601
74955.762
329815.99
349356.93
323720.4
300111.38
276023.19
252625.97
230055.01
208345.46
187498.93
167512.26
148381.21
130101.12
112666.92
96073.147
80313.96
65383.152
51274.167
37980.122
25493.821
13807.782
2914.2556
-7194.7539
-16527.47
-25092.319
-32897.92
-39953.058
-46266.734
-51848.307
-56707.55
-60854.281
-64297.387
-67044.189
-69101.663
-70482.019
-71233.042
-71576.626
-72961.347
-78793.424
-129560.26
-5383.8475
)
;

boundaryField
{
    left
    {
        type            zeroGradient;
    }
    right
    {
        type            zeroGradient;
    }
    top
    {
        type            zeroGradient;
    }
    bottom
    {
        type            zeroGradient;
    }
    frontAndBack
    {
        type            empty;
    }
}


// ************************************************************************* //
