/*--------------------------------*- C++ -*----------------------------------*\
| =========                 |                                                 |
| \\      /  F ield         | OpenFOAM: The Open Source CFD Toolbox           |
|  \\    /   O peration     | Version:  2512                                  |
|   \\  /    A nd           | Website:  www.openfoam.com                      |
|    \\/     M anipulation  |                                                 |
\*---------------------------------------------------------------------------*/
FoamFile
{
    version     2.0;
    format      ascii;
    arch        "LSB;label=32;scalar=64";
    class       volScalarField;
    location    "0.4";
    object      sigmaEq;
}
// * * * * * * * * * * * * * * * * * * * * * * * * * * * * * * * * * * * * * //

dimensions      [1 -1 -2 0 0 0 0];

internalField   nonuniform List<scalar> 
160
(
869416.98
934762.88
885094.01
821044.48
755486.45
691827.42
630502.77
571557.87
514986.27
460780.89
408936.91
359452.07
312328.11
267573.91
225211.62
185289.21
147908.41
113295.08
82004.62
55626.236
39096.623
40556.934
55613.758
74524.113
93486.281
111320.5
127602.57
142159.11
154916.18
165844.34
174934.54
182185.52
187595.9
191156.03
192845.94
192837.49
193838.61
213773.18
381717.73
1058005.7
373273.13
367460.14
341787.59
317500.13
295377.59
274520
254613.38
235583.43
217422.25
200137.7
183742.69
168253.68
153691.09
140079.93
127450.57
115839.2
105287.72
95842.381
87550.463
80453.819
74578.883
69923.805
66445.712
64053.048
62607.557
61936.76
61852.8
62171.188
62723.882
63365.551
63975.422
64457.292
64736.31
64741.204
64332.105
63061.632
59847.865
58587.859
122088.44
330058.84
373243.83
367426
341751.77
317463.69
295340.87
274483.16
254576.57
235546.8
217385.98
200101.97
183707.68
168219.6
153658.12
140048.26
127420.41
115810.75
105261.18
95817.956
87528.336
80434.146
74561.771
69909.277
66433.691
64043.353
62599.952
61931.003
61848.686
62168.448
62722.065
63364.358
63975.395
64460.174
64743.871
64752.725
64344.07
63070.486
59853.799
58597.522
122101.67
330061.03
869385.49
934727.67
885056.86
821006.27
755447.71
691788.41
630463.66
571518.82
514947.43
460742.4
408898.92
359414.7
312291.48
267538.12
225176.75
185255.31
147875.51
113263.19
81973.866
55597.646
39075.807
40552.344
55619.207
74533.068
93496.174
111330.33
127611.93
142167.95
154924.73
165853.16
174944.28
182196.39
187607.78
191168.28
192857.82
192848.46
193847.49
213778.43
381718.24
1058008.8
)
;

boundaryField
{
    left
    {
        type            calculated;
        value           nonuniform List<scalar> 4(1030514.2 302290.4 302263.43 1030478.8);
    }
    right
    {
        type            calculated;
        value           nonuniform List<scalar> 4(1259398.3 430274.64 430262.88 1259402.2);
    }
    top
    {
        type            calculated;
        value           nonuniform List<scalar> 
40
(
1076885.7
1233975.9
1170022.9
1087847.5
1000915.5
916041.95
834154.8
755402.73
679786.46
607291.83
537902.98
471603.13
408374.33
348197.51
291052.68
236919.5
185778.39
137613.69
92425.028
50290.835
12607.549
27416.83
60703.149
91608.84
119841.31
145380.91
168244.58
188459.85
206059.24
221077.2
233545.53
243489.13
250926.25
255877.67
258455.85
259538.84
266278.31
311789.17
635496.93
1278620.5
)
;
    }
    bottom
    {
        type            calculated;
        value           nonuniform List<scalar> 
40
(
1076913.6
1234009.1
1170058.4
1087884.5
1000953
916079.73
834192.6
755440.38
679823.78
607328.66
537939.17
471638.52
408408.77
348230.87
291084.84
236950.34
185807.79
137641.56
92451.261
50315.226
12626.244
27396.493
60683.927
91591.256
119825.36
145366.54
168231.72
188448.09
206047.72
221064.82
233531.85
243475.36
250913.84
255866.79
258444.8
259525.81
266264.92
311779.8
635493.02
1278617.9
)
;
    }
    frontAndBack
    {
        type            empty;
    }
}


// ************************************************************************* //
