/*--------------------------------*- C++ -*----------------------------------*\
| =========                 |                                                 |
| \\      /  F ield         | OpenFOAM: The Open Source CFD Toolbox           |
|  \\    /   O peration     | Version:  2512                                  |
|   \\  /    A nd           | Website:  www.openfoam.com                      |
|    \\/     M anipulation  |                                                 |
\*---------------------------------------------------------------------------*/
FoamFile
{
    version     2.0;
    format      ascii;
    arch        "LSB;label=32;scalar=64";
    class       volSymmTensorField;
    location    "0.4";
    object      sigma;
}
// * * * * * * * * * * * * * * * * * * * * * * * * * * * * * * * * * * * * * //

dimensions      [1 -1 -2 0 0 0 0];

internalField   nonuniform List<symmTensor> 
160
(
(-896081.54 -18546.695 1.9884149e-11 58825.16 9.9420747e-12 -152228.43)
(-956119.6 -43229.419 -1.193049e-10 69256.892 -7.9536597e-11 -161247.77)
(-897229.15 -42631.748 0 75443.179 0 -149415.63)
(-831826.95 -42514.894 3.1814639e-10 69970.874 7.9536597e-10 -138519.29)
(-765039.6 -41477.556 -1.5907319e-10 64330.097 -3.1814639e-10 -127401.73)
(-700182.86 -40290.826 -4.7721958e-10 58866.148 6.3629278e-10 -116603.04)
(-637661.71 -39067.259 1.5907319e-10 53640.525 0 -106185.67)
(-577538.4 -37838.206 0 48626.225 6.3629278e-10 -96165.849)
(-519807.86 -36609.039 9.5443917e-10 43814.132 -4.4540495e-09 -86544.315)
(-464458.88 -35380.898 -3.1814639e-10 39201.044 0 -77319.607)
(-411479.26 -34154.084 -3.1814639e-10 34785.479 0 -68489.778)
(-360855.96 -32928.777 0 30566.254 -2.5451711e-09 -60052.674)
(-312574.93 -31705.101 -1.5907319e-09 26542.176 -3.8177567e-09 -52005.956)
(-266621.06 -30483.191 3.1814639e-10 22711.981 2.5451711e-09 -44347.105)
(-222978.17 -29263.156 3.1814639e-10 19074.322 -2.5451711e-09 -37073.427)
(-181629.09 -28045.123 6.3629278e-10 15627.767 1.7816198e-08 -30182.059)
(-142555.68 -26829.191 -1.9088783e-09 12370.808 0 -23669.976)
(-105738.89 -25615.473 1.2725856e-09 9301.8601 -2.5451711e-09 -17534.005)
(-71158.799 -24404.057 3.1814639e-10 6419.2682 5.0903422e-09 -11770.824)
(-38794.717 -23195.039 -6.3629278e-10 3721.3085 1.5271027e-08 -6376.9834)
(-8625.189 -21988.493 -1.2725856e-09 1206.1987 -5.0903422e-09 -1348.9073)
(19371.898 -20784.501 -3.1814639e-10 -1127.9047 1.5271027e-08 3317.0897)
(45219.289 -19583.134 -3.1814639e-10 -3282.8945 5.0903422e-09 7624.799)
(68940.281 -18384.474 1.2725856e-09 -5260.7174 -2.0361369e-08 11578.102)
(90558.701 -17188.608 -1.5907319e-09 -7063.3623 -2.5451711e-08 15180.971)
(110098.85 -15995.653 3.1814639e-10 -8692.884 0 18437.448)
(127585.58 -14805.832 -6.3629278e-10 -10151.382 -1.0180684e-08 21351.672)
(143044.47 -13619.472 -3.1814639e-10 -11441.029 -2.5451711e-08 23927.898)
(156502.08 -12436.966 -6.3629278e-10 -12563.918 -3.0542053e-08 26170.575)
(167985.3 -11257.994 9.5443917e-10 -13521.889 5.0903422e-09 28084.256)
(177519.13 -10081.345 -3.1814639e-10 -14316.438 3.0542053e-08 29673.216)
(185124.22 -8905.942 -9.5443917e-10 -14948.193 -2.5451711e-08 30941.097)
(190815.3 -7734.4615 -3.1814639e-10 -15414.583 1.0180684e-08 31891.04)
(194604.14 -6581.4138 -6.3629278e-10 -15698.079 -5.0903422e-09 32528.375)
(196532.91 -5503.0661 9.5443917e-10 -15721.319 3.0542053e-08 32874.834)
(196949.76 -4728.3511 6.3629278e-10 -15268.697 0 33032.921)
(199074.52 -5454.6777 -3.1814639e-10 -13878.967 0 33671.918)
(217334.91 -10772.145 3.1814639e-10 -17331.145 0 36364.321)
(371218.2 -46495.808 3.1814639e-10 -42339.792 -2.0361369e-08 59796.075)
(617360.63 19381.562 9.5443917e-10 -603693.72 2.0361369e-08 2484.891)
(-357548.79 -120514.02 -1.2427593e-11 -29781.64 4.9710373e-12 -70423.714)
(-326069.18 -104779.49 -1.7895734e-10 26022.311 -2.3860979e-10 -54553.975)
(-301565.71 -97265.153 -2.7837809e-10 26630.538 1.5907319e-10 -49988.213)
(-278105.56 -92702.382 -1.9884149e-10 24092.842 3.1814639e-10 -46184.131)
(-255621.62 -89384.669 -4.3745129e-10 21859.548 0 -42502.195)
(-233967.72 -86344.882 -7.1582938e-10 19956.283 9.5443917e-10 -38911.17)
(-213122.94 -83366.171 -3.1814639e-10 18196.408 -1.2725856e-09 -35441.188)
(-193079.62 -80403.866 -3.1814639e-10 16520.825 6.3629278e-10 -32101.599)
(-173833.59 -77451.285 -5.5675618e-10 14914.949 6.3629278e-10 -28894.298)
(-155381.02 -74508.249 -4.7721958e-10 13375.651 -1.2725856e-09 -25819.158)
(-137717.91 -71575.553 -6.3629278e-10 11902.099 -2.5451711e-09 -22875.602)
(-120839.93 -68654.108 -3.9768299e-10 10493.853 -3.8177567e-09 -20062.923)
(-104742.42 -65744.816 -4.7721958e-10 9150.5098 3.8177567e-09 -17380.346)
(-89420.326 -62848.565 -3.1814639e-10 7871.6494 2.5451711e-09 -14827.032)
(-74868.29 -59966.213 -3.1814639e-10 6656.8273 1.0180684e-08 -12402.084)
(-61080.594 -57098.585 -6.3629278e-10 5505.5734 -5.0903422e-09 -10104.549)
(-48051.208 -54246.463 -6.3629278e-10 4417.3922 -7.6355133e-09 -7933.4211)
(-35773.796 -51410.591 -7.9536597e-10 3391.7637 -5.0903422e-09 -5887.6422)
(-24241.74 -48591.66 -4.7721958e-10 2428.1445 -7.6355133e-09 -3966.1084)
(-13448.154 -45790.314 -3.1814639e-10 1525.9697 1.5271027e-08 -2167.6699)
(-3385.9091 -43007.146 -3.1814639e-10 684.6534 -5.0903422e-09 -491.1374)
(5952.3514 -40242.706 -9.5443917e-10 -96.409529 -1.5271027e-08 1064.7167)
(14574.184 -37497.505 -7.9536597e-10 -817.84217 5.0903422e-09 2501.153)
(22487.333 -34772.026 -1.1135124e-09 -1480.285 0 3819.4633)
(29699.708 -32066.744 -7.9536597e-10 -2084.3953 5.0903422e-09 5020.966)
(36219.389 -29382.182 -7.9536597e-10 -2630.8688 -5.0903422e-09 6107.0038)
(42054.645 -26718.979 -6.3629278e-10 -3120.4365 -5.0903422e-09 7078.947)
(47213.988 -24077.923 -3.1814639e-10 -3553.9037 -5.0903422e-09 7938.1971)
(51706.109 -21459.431 -7.9536597e-10 -3931.9804 -5.0903422e-09 8686.2051)
(55539.594 -18862.42 -6.3629278e-10 -4255.0495 1.0180684e-08 9324.4626)
(58722.343 -16283.682 -9.5443917e-10 -4523.0142 5.0903422e-09 9854.4234)
(61261.154 -13719.137 -7.9536597e-10 -4734.971 5.0903422e-09 10277.488)
(63161.297 -11166.153 -4.7721958e-10 -4887.1515 0 10595.299)
(64425.553 -8618.2157 -3.9768299e-10 -4958.2344 -2.0361369e-08 10812.24)
(65046.079 -6018.3428 -9.5443917e-10 -4839.3481 -2.0361369e-08 10946.678)
(64974.015 -3029.4827 -4.7721958e-10 -4052.4708 2.0361369e-08 11076.644)
(63963.977 2065.1431 -7.9536597e-10 -1028.0095 -1.0180684e-08 11442.903)
(61217.444 16041.873 -5.5675618e-10 7226.7827 -1.0180684e-08 12444.405)
(50669.485 64695.464 -6.3629278e-10 -2413.1279 -5.0903422e-08 8773.8832)
(37954.153 131820.78 -4.7721958e-10 -228236.43 1.0180684e-08 -34596.777)
(357510.43 -120511.96 0 29778.054 -2.4855187e-11 70416.088)
(326029.7 -104778.42 1.193049e-10 -26019.809 -1.5907319e-10 54547.254)
(301525.85 -97263.719 -7.9536597e-11 -26626.406 -2.3860979e-10 49981.718)
(278065.51 -92700.33 -7.9536597e-11 -24088.399 1.2725856e-09 46177.657)
(255581.45 -89382.002 4.7721958e-10 -21855.105 -6.3629278e-10 42495.698)
(233927.5 -86341.647 -7.9536597e-11 -19951.874 -6.3629278e-10 38904.658)
(213082.79 -83362.407 0 -18192.025 0 35434.685)
(193039.69 -80399.596 7.9536597e-11 -16516.46 -1.9088783e-09 32095.133)
(173794.04 -77446.528 1.5907319e-10 -14910.602 3.1814639e-09 28887.897)
(155342.02 -74503.019 1.5907319e-10 -13371.327 -2.5451711e-09 25812.853)
(137679.62 -71569.868 -6.3629278e-10 -11897.812 0 22869.42)
(120802.52 -68647.98 1.5907319e-10 -10489.62 -2.5451711e-09 20056.89)
(104706.02 -65738.265 -4.7721958e-10 -9146.3538 -5.0903422e-09 17374.485)
(89385.101 -62841.607 9.5443917e-10 -7867.5941 -7.6355133e-09 14821.365)
(74834.359 -59958.869 -3.1814639e-10 -6652.8976 1.5271027e-08 12396.629)
(61048.079 -57090.872 -1.5907319e-10 -5501.792 -5.0903422e-09 10099.325)
(48020.217 -54238.405 1.5907319e-10 -4413.7802 -2.5451711e-09 7928.443)
(35744.43 -51402.208 0 -3388.3386 -5.0903422e-09 5882.9257)
(24214.084 -48582.976 3.1814639e-10 -2424.9215 -1.2725856e-08 3961.666)
(13422.287 -45781.352 -7.9536597e-10 -1522.9589 1.7816198e-08 2163.5142)
(3361.8909 -42997.933 -1.5907319e-10 -681.86175 1.0180684e-08 487.27803)
(-5974.4754 -40233.265 3.1814639e-10 98.980461 1.0180684e-08 -1068.2718)
(-14594.404 -37487.864 3.1814639e-10 820.19461 1.5271027e-08 -2504.4017)
(-22505.681 -34762.208 0 1482.4321 -1.5271027e-08 -3822.4089)
(-29716.29 -32056.773 0 2086.3566 5.0903422e-09 -5023.6242)
(-36234.395 -29372.076 1.5907319e-10 2632.644 -5.0903422e-09 -6109.4092)
(-42068.352 -26708.787 3.1814639e-10 3121.8984 0 -7081.1734)
(-47226.713 -24067.75 4.7721958e-10 3554.6002 -5.0903422e-09 -7940.3842)
(-51718.189 -21449.355 -3.1814639e-10 3931.2217 -2.5451711e-08 -8688.5395)
(-55551.389 -18852.425 1.5907319e-10 4252.516 0 -9327.0678)
(-58734.314 -16273.563 3.1814639e-10 4519.6502 5.0903422e-09 -9857.2116)
(-61273.753 -13708.707 3.1814639e-10 4733.1237 0 -10280.114)
(-63174.861 -11155.63 -1.5907319e-10 4888.6897 1.0180684e-08 -10597.486)
(-64439.706 -8608.1189 -1.5907319e-10 4962.255 -1.5271027e-08 -10814.082)
(-65059.794 -6008.9654 -7.9536597e-11 4842.2942 0 -10948.636)
(-64986.012 -3020.6564 0 4051.2284 -3.0542053e-08 -11079.052)
(-63973.176 2073.8673 -1.5907319e-10 1023.1464 1.0180684e-08 -11445.46)
(-61224.276 16050.535 1.5907319e-10 -7231.9922 2.0361369e-08 -12446.594)
(-50674.434 64703.367 -1.5907319e-10 2409.1387 2.0361369e-08 -8775.5083)
(-37956.235 131826.01 -2.3860979e-10 228228.55 1.0180684e-08 34594.967)
(896048.73 -18545.616 5.9652448e-11 -58823.528 -1.193049e-10 152222.76)
(956083.45 -43228.546 3.5791469e-10 -69254.311 -3.5791469e-10 161241.66)
(897191.59 -42630.44 3.9768299e-10 -75439.792 -4.7721958e-10 149409.42)
(831788.5 -42512.876 0 -69967.302 0 138512.94)
(765000.72 -41474.896 1.1135124e-09 -64326.471 3.1814639e-10 127395.32)
(700143.82 -40287.592 3.1814639e-10 -58862.508 -6.3629278e-10 116596.6)
(637622.68 -39063.495 1.7498051e-09 -53636.887 6.3629278e-10 106179.24)
(577499.55 -37833.935 -3.1814639e-10 -48622.601 1.2725856e-09 96159.445)
(519769.37 -36604.283 6.3629278e-10 -43810.532 6.9992206e-09 86537.97)
(464420.9 -35375.667 6.3629278e-10 -39197.48 -1.2725856e-09 77313.349)
(411441.95 -34148.398 1.2725856e-09 -34781.962 0 68483.634)
(360819.49 -32922.648 2.8633175e-09 -30562.798 -3.8177567e-09 60046.67)
(312539.44 -31698.55 3.1814639e-10 -26538.797 -5.0903422e-09 52000.117)
(266586.68 -30476.231 0 -22708.695 7.6355133e-09 44341.453)
(222945.04 -29255.812 6.3629278e-10 -19071.144 -7.6355133e-09 37067.982)
(181597.33 -28037.409 3.1814639e-10 -15624.712 7.6355133e-09 30176.839)
(142525.39 -26821.133 2.5451711e-09 -12367.891 -1.2725856e-08 23665)
(105710.17 -25607.088 0 -9299.092 1.0180684e-08 17529.287)
(71131.743 -24395.373 -6.3629278e-10 -6416.659 -1.2725856e-08 11766.379)
(38769.39 -23186.076 6.3629278e-10 -3718.8668 1.0180684e-08 6372.8225)
(8601.6545 -21979.279 1.5907319e-09 -1203.9286 -5.0903422e-09 1345.0411)
(-19393.606 -20775.06 3.1814639e-10 1130 -2.0361369e-08 -3320.6557)
(-45239.162 -19573.495 1.2725856e-09 3284.8158 -2.5451711e-08 -7628.063)
(-68958.355 -18374.656 2.5451711e-09 5262.4698 0 -11581.07)
(-90575.059 -17178.634 2.5451711e-09 7064.9534 0 -15183.655)
(-110113.61 -15985.533 3.4996103e-09 8694.3125 5.0903422e-09 -18439.873)
(-127598.92 -14795.61 6.3629278e-10 10152.597 5.0903422e-09 -21353.877)
(-143056.77 -13609.302 0 11441.837 1.5271027e-08 -23929.988)
(-156513.99 -12426.949 1.2725856e-09 12564.056 -2.0361369e-08 -26172.715)
(-167997.58 -11248.12 3.1814639e-09 13521.333 1.5271027e-08 -28086.591)
(-177532.19 -10071.28 1.2725856e-09 14315.749 2.5451711e-08 -29675.717)
(-185137.55 -8895.3565 1.5907319e-09 14948.452 -1.5271027e-08 -30943.472)
(-190828.27 -7723.6799 -3.1814639e-10 15416.357 -1.0180684e-08 -31893.075)
(-194616.55 -6571.2118 0 15700.655 -3.5632396e-08 -32530.162)
(-196545.34 -5493.8732 3.1814639e-10 15723 0 -32876.789)
(-196962.73 -4719.8604 2.2270247e-09 15268.219 4.0722738e-08 -33035.366)
(-199086.54 -5446.0132 1.2725856e-09 13876.968 -2.0361369e-08 -33674.468)
(-217343.48 -10763.179 9.5443917e-10 17329.402 -2.0361369e-08 -36366.195)
(-371222.73 -46487.622 1.2725856e-09 42339.001 1.0180684e-08 -59797.042)
(-617362.17 19386.249 1.2725856e-09 603695.48 1.0180684e-08 -2484.8527)
)
;

boundaryField
{
    left
    {
        type            calculated;
        value           nonuniform List<symmTensor> 4((-1120139.5 -61094.245 0 -11986.555 0 -205841.09) (-330563.67 -91790.452 0 -73458.594 0 -73458.594) (330526.87 -91787.573 0 73450.416 0 73450.416) (1120101.6 -61089.639 0 11986.215 0 205834.15));
    }
    right
    {
        type            calculated;
        value           nonuniform List<symmTensor> 4((106507.93 2836.7464 0 -1282087.5 0 -213741.75) (36385.019 4243.7639 0 -437964.64 0 -73014.477) (-36384.016 4243.7324 0 437952.68 0 73012.484) (-106508.26 2836.7116 0 1282091.5 0 213742.4));
    }
    top
    {
        type            calculated;
        value           nonuniform List<symmTensor> 
40
(
(1096159.9 -204.01656 0 -91243.388 0 182712.1)
(1256070.7 -390.98762 0 -104542.05 0 209368.85)
(1190980.1 -623.95326 0 -99114.23 0 198521.06)
(1107339.2 -868.52415 0 -92144.206 0 184580.9)
(1018855.6 -1112.6098 0 -84771.887 0 169833.4)
(932466.54 -1353.9325 0 -77574.601 0 155434.9)
(849116.41 -1591.6072 0 -70630.927 0 141542.82)
(768956.48 -1824.9839 0 -63953.449 0 128182.37)
(691987.36 -2053.4418 0 -57542.208 0 115353.66)
(618194.45 -2276.3728 0 -51395.981 0 103054.27)
(547561.4 -2493.1842 0 -45513.395 0 91281.456)
(480070.79 -2703.3008 0 -39892.987 0 80032.328)
(415703.85 -2906.1673 0 -34533.183 0 69303.757)
(354440.39 -3101.2492 0 -29432.289 0 59092.382)
(296258.84 -3288.0348 0 -24588.494 0 49394.608)
(241136.26 -3466.036 0 -19999.873 0 40206.615)
(189048.43 -3634.7903 0 -15664.394 0 31524.37)
(139969.91 -3793.8612 0 -11579.922 0 23343.634)
(93874.116 -3942.8397 0 -7744.2274 0 15659.98)
(50733.402 -4081.345 0 -4154.9892 0 8468.8023)
(10519.132 -4209.0257 0 -809.80558 0 1765.3321)
(-26798.237 -4325.5601 0 2293.8018 0 -4455.3518)
(-61249.081 -4430.6568 0 5158.3811 0 -10198.309)
(-92864.53 -4524.0559 0 7786.5436 0 -15468.725)
(-121676.4 -4605.5283 0 10180.958 0 -20271.899)
(-147717.1 -4674.8768 0 12344.342 0 -24613.229)
(-171019.77 -4731.9356 0 14279.476 0 -28498.235)
(-191618.88 -4776.5709 0 15989.251 0 -31932.66)
(-209550.65 -4808.6846 0 17476.703 0 -34922.536)
(-224851.82 -4828.219 0 18744.914 0 -37473.983)
(-237555.72 -4835.1565 0 19796.678 0 -39592.553)
(-247688.31 -4829.5083 0 20634.174 0 -41282.57)
(-255268.54 -4811.301 0 21258.992 0 -42547.191)
(-260317.8 -4780.5895 0 21672.933 0 -43389.976)
(-262950.79 -4737.4997 0 21885.557 0 -43830.042)
(-264061.9 -4681.9855 0 21971.203 0 -44016.49)
(-270935.24 -4611.3049 0 22535.005 0 -45163.679)
(-317295.04 -4498.2675 0 26378.494 0 -52893.918)
(-646900.24 -4216.7392 0 53751.154 0 -107845.29)
(-1301655.9 -2809.0306 0 108134.29 0 -217003.93)
)
;
    }
    bottom
    {
        type            calculated;
        value           nonuniform List<symmTensor> 
40
(
(-1096188.3 -203.99394 0 91245.768 0 -182716.83)
(-1256104.5 -390.97888 0 104544.88 0 -209374.48)
(-1191016.2 -623.95099 0 99117.262 0 -198527.08)
(-1107376.8 -868.52364 0 92147.358 0 -184587.16)
(-1018893.8 -1112.6098 0 84775.091 0 -169839.76)
(-932504.98 -1353.9326 0 77577.826 0 -155441.3)
(-849154.87 -1591.6074 0 70634.153 0 -141549.22)
(-768994.78 -1824.9843 0 63956.661 0 -128188.75)
(-692025.33 -2053.4424 0 57545.393 0 -115359.99)
(-618231.93 -2276.3735 0 51399.124 0 -103060.51)
(-547598.22 -2493.1851 0 45516.482 0 -91287.588)
(-480106.79 -2703.302 0 39896.007 0 -80038.325)
(-415738.89 -2906.1687 0 34536.122 0 -69309.594)
(-354474.34 -3101.2508 0 29435.137 0 -59098.037)
(-296291.56 -3288.0365 0 24591.239 0 -49400.059)
(-241167.64 -3466.0379 0 20002.506 0 -40211.843)
(-189078.36 -3634.7924 0 15666.905 0 -31529.356)
(-139998.3 -3793.8634 0 11582.304 0 -23348.363)
(-93900.879 -3942.842 0 7746.4716 0 -15664.438)
(-50758.466 -4081.3474 0 4157.0909 0 -8472.9773)
(-10542.434 -4209.0281 0 811.75951 0 -1769.2136)
(26776.725 -4325.5625 0 -2291.998 0 4451.7685)
(61229.365 -4430.6592 0 -5156.7281 0 10195.025)
(92846.573 -4524.0581 0 -7785.038 0 15465.734)
(121660.14 -4605.5304 0 -10179.595 0 20269.19)
(147702.46 -4674.8788 0 -12343.115 0 24610.789)
(171006.66 -4731.9379 0 -14278.378 0 28496.052)
(191606.91 -4776.5747 0 -15988.247 0 31930.666)
(209538.93 -4808.6897 0 -17475.72 0 34920.583)
(224839.21 -4828.2231 0 -18743.857 0 37471.883)
(237541.8 -4835.1552 0 -19795.511 0 39590.234)
(247674.29 -4829.4995 0 -20632.999 0 41280.235)
(255255.91 -4811.2906 0 -21257.933 0 42545.086)
(260306.73 -4780.5872 0 -21672.005 0 43388.132)
(262939.55 -4737.5094 0 -21884.615 0 43828.17)
(264048.63 -4682.0004 0 -21970.091 0 44014.28)
(270921.61 -4611.3123 0 -22533.862 0 45161.408)
(317285.5 -4498.2651 0 -26377.694 0 52892.329)
(646896.25 -4216.7383 0 -53750.82 0 107844.62)
(1301653.3 -2809.0415 0 -108134.07 0 217003.5)
)
;
    }
    frontAndBack
    {
        type            empty;
    }
}


// ************************************************************************* //
