/*--------------------------------*- C++ -*----------------------------------*\
| =========                 |                                                 |
| \\      /  F ield         | OpenFOAM: The Open Source CFD Toolbox           |
|  \\    /   O peration     | Version:  2512                                  |
|   \\  /    A nd           | Website:  www.openfoam.com                      |
|    \\/     M anipulation  |                                                 |
\*---------------------------------------------------------------------------*/
FoamFile
{
    version     2.0;
    format      ascii;
    arch        "LSB;label=32;scalar=64";
    class       surfaceSymmTensorField;
    location    "0.4";
    object      sigmaf;
}
// * * * * * * * * * * * * * * * * * * * * * * * * * * * * * * * * * * * * * //

dimensions      [1 -1 -2 0 0 0 0];

internalField   nonuniform List<symmTensor> 
276
(
(-1103103.6 -40082.249 0 -34202.643 0 -262455.29)
(-752219.34 -120091.57 0 -19047.278 0 -177984.6)
(-1018375.6 -42708.162 0 -2929.0188 0 -235685.69)
(-704508.89 -85105.53 0 4696.0327 0 -161495.28)
(-940582.61 -43953.688 0 -125.54097 0 -217086.5)
(-653080.61 -78419.258 0 3328.966 0 -149942.69)
(-866267.36 -43362.679 0 144.96925 0 -199874.4)
(-602525.35 -75187.876 0 1493.6871 0 -138699.62)
(-794634.82 -42233.738 0 87.11783 0 -183357.16)
(-553801.83 -72750.114 0 954.68077 0 -127580.11)
(-725606.01 -40980.691 0 60.518541 0 -167433.58)
(-506876.37 -70387.816 0 827.94275 0 -116780.41)
(-659174.75 -39704.356 0 53.35729 0 -152104.94)
(-461709.67 -68028.571 0 802.28175 0 -106363.24)
(-595335.88 -38425.333 0 52.846515 0 -137373.01)
(-418282 -65669.642 0 795.92967 0 -96342.939)
(-534080.96 -37146.783 0 54.062987 0 -123236.98)
(-376582.33 -63314.726 0 793.18158 0 -86720.573)
(-475398.08 -35869.953 0 55.917972 0 -109694.35)
(-336602.17 -60965.684 0 790.35525 0 -77495.034)
(-419274.51 -34594.535 0 57.974521 0 -96742.277)
(-298332.49 -58623.73 0 787.80029 0 -68664.159)
(-365695.3 -33321.284 0 60.295355 0 -84377.309)
(-261764.16 -56289.536 0 784.5886 0 -60226.055)
(-314645.11 -32049.734 0 62.724288 0 -72595.936)
(-226886.77 -53963.885 0 781.61016 0 -52178.115)
(-266106.64 -30780.678 0 65.375419 0 -61394.137)
(-193689.71 -51647.309 0 777.91931 0 -44518.106)
(-220062.2 -29513.577 0 68.119576 0 -50767.865)
(-162161.02 -49340.511 0 774.51353 0 -37243.04)
(-176492.35 -28249.269 0 71.062365 0 -40712.604)
(-132288.63 -47043.98 0 770.36965 0 -30350.367)
(-135377.28 -26987.15 0 74.089075 0 -31223.813)
(-104059.14 -44758.353 0 766.57169 0 -23836.747)
(-96695.613 -25728.095 0 77.291155 0 -22296.536)
(-77459.163 -42484.07 0 762.02277 0 -17699.34)
(-60425.653 -24471.433 0 80.56815 0 -13925.789)
(-52473.998 -40221.691 0 757.88026 0 -11934.489)
(-26544.33 -23218.064 0 83.99606 0 -6106.2309)
(-29089.077 -37971.6 0 752.98218 0 -6539.0989)
(4971.6942 -21967.26 0 87.489037 0 1167.5038)
(-7288.5813 -35734.272 0 748.54639 0 -1509.2388)
(34146.91 -20719.945 0 91.106954 0 7901.0809)
(12943.064 -33510.039 0 743.353 0 3158.404)
(61006.052 -19475.355 0 94.778598 0 14100.192)
(31622.631 -31299.308 0 738.6665 0 7467.9918)
(85574.806 -18234.444 0 98.547128 0 19770.774)
(48766.539 -29102.381 0 733.21855 0 11423.021)
(107879.1 -16996.449 0 102.35739 0 24918.797)
(64392.354 -26919.637 0 728.29353 0 15027.842)
(127945.7 -15762.376 0 106.21945 0 29550.444)
(78517.251 -24751.427 0 722.59854 0 18286.119)
(145801.81 -14531.711 0 110.09622 0 33671.978)
(91159.547 -22598.286 0 717.30819 0 21202.351)
(161475.65 -13305.657 0 113.93096 0 37289.903)
(102337.36 -20460.843 0 711.3227 0 23780.465)
(174995.78 -12083.962 0 117.81615 0 40410.831)
(112069.73 -18339.608 0 705.53218 0 26025.06)
(186390.54 -10866.255 0 122.10343 0 43041.38)
(120375.16 -16233.948 0 699.91489 0 27940.401)
(195686.14 -9650.4322 0 127.80202 0 45187.833)
(127271.03 -14141.989 0 695.63086 0 29530.767)
(202908.34 -8436.5118 0 138.39044 0 46856.939)
(132771.99 -12062.651 0 693.78633 0 30799.795)
(208087.32 -7232.0626 0 165.68904 0 48058.386)
(136888.75 -10001.739 0 699.11468 0 31751.046)
(211279.13 -6074.4498 0 255.46535 0 48815.675)
(139623.17 -7981.856 0 734.54057 0 32390.241)
(212591.2 -5126.7977 0 555.63429 0 49187.731)
(140944.43 -6058.5369 0 927.4459 0 32739.664)
(212224.05 -5156.0045 0 1304.7345 0 49275.874)
(140705.19 -4320.5855 0 1886.8401 0 32905.853)
(210121.79 -9495.0187 0 1766.7191 0 48897.349)
(138413.18 -2512.0652 0 6182.278 0 33368.182)
(203364.96 -28959.48 0 -17328.903 0 42931.397)
(133195.15 2232.9812 0 21275.826 0 35647.148)
(162818.23 -83623.459 0 -138369.39 0 5642.039)
(125787.58 36153.03 0 56190.536 0 41994.949)
(162927.34 158788.87 0 -85682.581 0 17825.713)
(-372145.6 -108597.51 0 -5974.2886 0 -87258.436)
(-20.780328 -115202.43 0 -2.4909652 0 -5.3702984)
(-342669.31 -101670.04 0 1028.1612 0 -78840.265)
(-21.801819 -114576.25 0 0.05671374 0 -5.0181013)
(-315036.95 -96110.092 0 868.71433 0 -72500.362)
(-21.964123 -106050.25 0 0.78396355 0 -4.8877291)
(-289602.61 -92386.783 0 459.54787 0 -66725.322)
(-22.030538 -100621.57 0 0.77597644 0 -4.9048987)
(-265539.11 -89205.667 0 338.4683 0 -61200.149)
(-22.036215 -96812.532 0 0.80552659 0 -4.8993895)
(-242479.89 -86155.249 0 311.20915 0 -55885.079)
(-22.060268 -93445.77 0 0.69133962 0 -4.9312911)
(-220321.39 -83135.771 0 306.15725 0 -50772.747)
(-21.982348 -90185.202 0 0.75799245 0 -4.8979282)
(-199035.9 -80128.423 0 304.95996 0 -45860.985)
(-21.876792 -86953.026 0 0.67315807 0 -4.8931462)
(-178613.58 -77130.819 0 304.23973 0 -41148.31)
(-21.632319 -83734.339 0 0.7768013 0 -4.8128118)
(-159049.18 -74143.387 0 303.43301 0 -36633.634)
(-21.351655 -80527.124 0 0.69735827 0 -4.7663763)
(-140337.58 -71167.039 0 302.56067 0 -32315.774)
(-20.923858 -77331.815 0 0.81604632 0 -4.6402641)
(-122474.04 -68202.677 0 301.57384 0 -28193.645)
(-20.47019 -74149.314 0 0.72075983 0 -4.5575609)
(-105453.04 -65251.247 0 300.53003 0 -24265.964)
(-19.871706 -70980.606 0 0.83693689 0 -4.3926391)
(-89269.155 -62313.615 0 299.38389 0 -20531.486)
(-19.263342 -67826.684 0 0.71432602 0 -4.2805422)
(-73916.183 -59390.675 0 298.18449 0 -16988.769)
(-18.515707 -64688.515 0 0.82121453 0 -4.0833443)
(-59387.951 -56483.222 0 296.89415 0 -13636.398)
(-17.774897 -61567.032 0 0.67139918 0 -3.946961)
(-45677.597 -53592.069 0 295.55598 0 -10472.779)
(-16.901184 -58463.122 0 0.7703366 0 -3.7225032)
(-32778.266 -50717.922 0 294.14037 0 -7496.3367)
(-16.050154 -55377.625 0 0.59887252 0 -3.5656804)
(-20682.512 -47861.495 0 292.6838 0 -4705.3449)
(-15.073198 -52311.325 0 0.69363395 0 -3.3183609)
(-9382.8703 -45023.391 0 291.16458 0 -2098.0859)
(-14.134564 -49264.95 0 0.50798557 0 -3.1445951)
(1128.6032 -42204.225 0 289.61135 0 327.28029)
(-13.079857 -46239.176 0 0.6042433 0 -2.8789877)
(10859.891 -39404.508 0 288.00881 0 2572.5923)
(-12.08432 -43234.622 0 0.41358056 0 -2.6932475)
(19819.354 -36624.778 0 286.37711 0 4639.784)
(-10.996012 -40251.87 0 0.51729123 0 -2.4181664)
(28015.403 -33865.488 0 284.70452 0 6530.7941)
(-10.013131 -37291.462 0 0.33002451 0 -2.2345629)
(35456.743 -31127.159 0 283.0001 0 8247.6331)
(-8.9992972 -34353.938 0 0.45626707 0 -1.9714685)
(42152.178 -28410.339 0 281.20784 0 9792.3199)
(-8.18255 -31439.875 0 0.28712487 0 -1.8220212)
(48110.765 -25715.752 0 279.27814 0 11166.933)
(-7.4258321 -28549.981 0 0.38024094 0 -1.6259057)
(53341.72 -23044.269 0 277.00548 0 12373.552)
(-6.9211938 -25685.087 0 -0.048910167 0 -1.6084855)
(57854.092 -20395.789 0 274.45572 0 13414.28)
(-6.5498811 -22845.508 0 -0.7633223 0 -1.6876623)
(61656.189 -17768.264 0 271.89693 0 14291.097)
(-6.5068468 -20029.779 0 -2.2221656 0 -2.0143875)
(64753.964 -15157.243 0 269.81113 0 15005.486)
(-6.7314866 -17233.77 0 -3.2788836 0 -2.3100854)
(67148.32 -12558.448 0 268.48097 0 15557.723)
(-7.2004783 -14451.039 0 -2.923835 0 -2.33638)
(68824.563 -9968.0727 0 269.01229 0 15944.671)
(-7.4907345 -11671.973 0 -0.22131803 0 -1.7797044)
(69714.078 -7363.615 0 289.34705 0 16154.637)
(-7.5301593 -8865.2619 0 2.2101567 0 -1.2276929)
(69543.824 -4593.1616 0 444.35446 0 16151.118)
(-7.0974947 -5881.7122 0 2.1901876 0 -1.1324555)
(67267.924 -886.87373 0 1263.4705 0 15814.937)
(-6.1970139 -2038.2179 0 -0.74964393 0 -1.6030749)
(59196.096 7098.5283 0 4251.3627 0 14641.721)
(-4.8434153 5564.1479 0 -3.797572 0 -1.994074)
(34237.372 30157.854 0 10212.86 0 10257.746)
(-3.7787322 27180.008 0 -4.2589454 0 -1.8548487)
(-18739.439 88090.955 0 -34649.709 0 -12320.573)
(-2.6347728 89030.717 0 -2.6157365 0 -1.211656)
(-0.70743128 139713.53 0 -3.3774748 0 -0.94267065)
(372101.89 -108596.32 0 5971.6797 0 87247.748)
(752178.47 -120088.1 0 19043.834 0 177974.38)
(342625.02 -101668.83 0 -1027.97 0 78830.087)
(704467.4 -85103.448 0 -4695.9663 0 161485.72)
(314992.78 -96108.389 0 -867.81401 0 72490.376)
(653038.51 -78416.303 0 -3328.1283 0 149933.17)
(289558.28 -92384.397 0 -458.61329 0 66715.308)
(602482.84 -75183.745 0 -1492.8112 0 138690.01)
(265494.9 -89202.74 0 -337.52091 0 61190.164)
(553759.08 -72744.723 0 -953.80379 0 127570.45)
(242435.58 -86151.718 0 -310.31912 0 55875.061)
(506833.51 -70381.355 0 -827.10426 0 116770.71)
(220277.4 -83131.78 0 -305.2312 0 50762.808)
(461666.86 -68021.008 0 -801.42391 0 106353.56)
(198992.12 -80123.874 0 -304.05298 0 45851.093)
(418239.4 -65661.119 0 -795.09228 0 96333.302)
(178570.45 -77125.855 0 -303.27203 0 41138.581)
(376540.14 -63305.182 0 -792.3085 0 86711.037)
(159006.64 -74137.89 0 -302.46489 0 36624.041)
(336560.54 -60955.24 0 -789.49235 0 77485.626)
(140296.04 -71161.167 0 -301.53141 0 32306.425)
(298291.62 -58612.329 0 -786.88811 0 68654.939)
(122433.45 -68196.295 0 -300.55054 0 28184.514)
(261724.21 -56277.293 0 -783.69121 0 60217.043)
(105413.76 -65244.531 0 -299.46866 0 24257.145)
(226847.92 -53950.754 0 -780.66644 0 52169.367)
(89231.148 -62306.42 0 -298.35131 0 20522.953)
(193652.09 -51633.402 0 -777.01336 0 44509.632)
(73879.763 -59383.189 0 -297.14553 0 16980.604)
(162124.79 -49325.794 0 -773.57621 0 37234.895)
(59353.072 -56475.29 0 -295.90787 0 13628.576)
(132253.89 -47028.56 0 -769.49929 0 30342.551)
(45644.531 -53583.894 0 -294.59141 0 10465.371)
(104026.04 -44742.209 0 -765.68566 0 23829.312)
(32746.971 -50709.339 0 -293.24518 0 7489.3213)
(77427.772 -42467.306 0 -761.22914 0 17692.279)
(20653.207 -47852.72 0 -291.82908 0 4698.7795)
(52444.445 -40204.298 0 -757.08087 0 11927.853)
(9355.5178 -45014.252 0 -290.38383 0 2091.954)
(29061.41 -37953.674 0 -752.2913 0 6532.8734)
(-1153.8405 -42194.947 0 -288.87641 0 -332.93468)
(7262.8999 -35715.82 0 -747.84911 0 1503.4733)
(-10883.066 -39394.914 0 -287.33975 0 -2577.786)
(-12966.752 -33491.151 0 -742.77066 0 -3163.736)
(-19840.394 -36615.099 0 -285.74804 0 -4644.4943)
(-31644.276 -31280.004 0 -738.07206 0 -7472.8495)
(-28034.447 -33855.538 0 -284.11775 0 -6535.0534)
(-48786.219 -29082.739 0 -732.74576 0 -11427.453)
(-35473.899 -31117.167 0 -282.43584 0 -8251.4619)
(-64410.129 -26899.678 0 -727.78346 0 -15031.826)
(-42167.785 -28400.119 0 -280.73101 0 -9795.8114)
(-78533.361 -24731.22 0 -722.226 0 -18289.751)
(-48125.139 -25705.584 0 -279.1596 0 -11170.223)
(-91174.219 -22577.896 0 -716.98003 0 -21205.661)
(-53355.233 -23034.109 0 -277.99275 0 -12376.898)
(-102351.06 -20440.473 0 -711.71071 0 -23783.717)
(-57867.013 -20385.898 0 -277.30188 0 -13417.919)
(-112083 -18319.372 0 -707.42739 0 -26028.559)
(-61668.877 -17758.393 0 -276.5473 0 -14295.098)
(-120388.52 -16213.859 0 -703.75085 0 -27944.37)
(-64767.034 -15147.14 0 -274.38534 0 -15009.558)
(-127284.79 -14121.717 0 -700.25022 0 -29535.01)
(-67162.377 -12547.706 0 -270.01904 0 -15561.322)
(-132785.95 -12041.921 0 -696.05083 0 -30803.539)
(-68839.948 -9957.4204 0 -266.6223 0 -15947.67)
(-136902.88 -9980.8507 0 -697.08396 0 -31753.837)
(-69729.682 -7353.6655 0 -285.79047 0 -16157.417)
(-139637.45 -7961.7562 0 -730.05981 0 -32392.502)
(-69558.102 -4584.2158 0 -444.12535 0 -16154.36)
(-140958.8 -6039.5672 0 -925.14653 0 -32742.449)
(-67278.898 -878.42366 0 -1268.2468 0 -15818.572)
(-140719.27 -4302.5728 0 -1890.4814 0 -32909.942)
(-59203.38 7107.0626 0 -4258.0602 0 -14644.948)
(-138425.35 -2494.4349 0 -6189.9795 0 -33372.769)
(-34243.67 30166.393 0 -10218.09 0 -10260.406)
(-133203.93 2249.9755 0 -21281.519 0 -35650.488)
(18735.578 88098.001 0 34645.744 0 12318.767)
(-125793.14 36168.848 0 -56192.605 0 -41996.71)
(-162929.06 158799.6 0 85681.218 0 -17826.426)
(1103064.2 -40081.288 0 34201.209 0 262445.86)
(1018335.9 -42707.172 0 2929.2974 0 235676.59)
(940541.99 -43952.073 0 126.12965 0 217077.26)
(866226.34 -43360.3 0 -144.27565 0 199865.09)
(794593.3 -42230.818 0 -86.485267 0 183347.73)
(725564.54 -40977.149 0 -59.852659 0 167424.16)
(659133.19 -39700.373 0 -52.748592 0 152095.49)
(595294.73 -38420.774 0 -52.194968 0 137363.66)
(534040.11 -37141.828 0 -53.456734 0 123227.69)
(475358 -35864.444 0 -55.264483 0 109685.25)
(419235.08 -34588.671 0 -57.36089 0 96733.321)
(365656.97 -33314.889 0 -59.640133 0 84368.616)
(314607.77 -32043.031 0 -62.112353 0 72587.46)
(266070.68 -30773.467 0 -64.735998 0 61385.987)
(220027.52 -29506.106 0 -67.531135 0 50759.997)
(176459.28 -28241.32 0 -70.462822 0 40705.112)
(135345.74 -26978.994 0 -73.547071 0 31216.659)
(96665.882 -25719.495 0 -76.752229 0 22289.799)
(60397.642 -24462.679 0 -80.089013 0 13919.435)
(26518.272 -23208.905 0 -83.528848 0 6100.3252)
(-4995.8903 -21958.005 0 -87.07794 0 -1172.9927)
(-34169.088 -20710.331 0 -90.71085 0 -7906.1075)
(-61026.337 -19465.706 0 -94.431999 0 -14104.793)
(-85593.154 -18224.469 0 -98.211758 0 -19774.931)
(-107895.73 -16986.486 0 -102.06968 0 -24922.569)
(-127960.73 -15752.106 0 -105.9849 0 -29553.857)
(-145815.63 -14521.596 0 -110.08999 0 -33675.167)
(-161488.7 -13295.642 0 -114.46706 0 -37293.039)
(-175008.8 -12074.302 0 -119.1782 0 -40414.15)
(-186404.01 -10856.484 0 -124.0644 0 -43044.941)
(-195700.27 -9639.9482 0 -129.40881 0 -45191.464)
(-202922.54 -8425.1345 0 -138.43165 0 -46860.224)
(-208101.99 -7221.1269 0 -164.40372 0 -48061.476)
(-211293.36 -6064.905 0 -254.07677 0 -48818.64)
(-212605.95 -5118.8119 0 -556.2676 0 -49191.282)
(-212238.46 -5148.1087 0 -1307.7332 0 -49279.89)
(-210133.99 -9485.8192 0 -1770.2687 0 -48900.982)
(-203372.73 -28950.094 0 17326.806 0 -42933.676)
(-162823.89 -83616.041 0 138367.92 0 -5643.6862)
)
;

boundaryField
{
    left
    {
        type            calculated;
        value           nonuniform List<symmTensor> 4((-1223060 -61094.245 0 -114907.1 0 -308761.64) (-367292.97 -91790.452 0 -110187.89 0 -110187.89) (367252.08 -91787.573 0 110175.62 0 110175.62) (1223018.7 -61089.639 0 114903.29 0 308751.22));
    }
    right
    {
        type            calculated;
        value           nonuniform List<symmTensor> 4((-362.94207 2836.7464 0 -1388958.4 0 -320612.62) (-122.21938 4243.7639 0 -474471.88 0 -109521.72) (122.22628 4243.7324 0 474458.92 0 109518.73) (362.93983 2836.7116 0 1388962.7 0 320613.6));
    }
    top
    {
        type            calculated;
        value           nonuniform List<symmTensor> 
40
(
(1187516 -204.01656 0 112.66224 0 274068.15)
(1360755.2 -390.98762 0 142.37888 0 314053.28)
(1290240.6 -623.95326 0 146.2996 0 297781.59)
(1199629.6 -868.52415 0 146.24524 0 276871.35)
(1103772.3 -1112.6098 0 144.81242 0 254750.1)
(1010184 -1353.9325 0 142.84782 0 233152.35)
(919887.82 -1591.6072 0 140.48048 0 212314.22)
(833047.66 -1824.9839 0 137.73591 0 192273.55)
(749664.19 -2053.4418 0 134.62361 0 173030.5)
(669721.59 -2276.3728 0 131.15271 0 154581.4)
(593202.13 -2493.1842 0 127.33339 0 136922.18)
(520086.95 -2703.3008 0 123.17686 0 120048.49)
(450355.73 -2906.1673 0 118.69526 0 103955.64)
(383986.58 -3101.2492 0 113.90161 0 88638.573)
(320956.14 -3288.0348 0 108.80973 0 74091.912)
(261239.56 -3466.036 0 103.43424 0 60309.923)
(204810.61 -3634.7903 0 97.790452 0 47286.554)
(151641.72 -3793.8612 0 91.894347 0 35015.45)
(101704.11 -3942.8397 0 85.762499 0 23489.97)
(54967.803 -4081.345 0 79.412019 0 12703.204)
(11401.798 -4209.0257 0 72.860484 0 2647.9982)
(-29025.913 -4325.5601 0 66.125889 0 -6683.0277)
(-66348.236 -4430.6568 0 59.226586 0 -15297.464)
(-100598.89 -4524.0559 0 52.181225 0 -23203.087)
(-131812.35 -4605.5283 0 45.008714 0 -30407.848)
(-160023.71 -4674.8768 0 37.72815 0 -36919.843)
(-185268.89 -4731.9356 0 30.358904 0 -42747.352)
(-207585.21 -4776.5709 0 22.920955 0 -47898.99)
(-227011.92 -4808.6846 0 15.435126 0 -52383.804)
(-243588.81 -4828.219 0 7.922398 0 -56210.974)
(-257352 -4835.1565 0 0.40177069 0 -59388.83)
(-268329.59 -4829.5083 0 -7.1113823 0 -61923.855)
(-276542.14 -4811.301 0 -14.603044 0 -63820.786)
(-282012.79 -4780.5895 0 -22.054929 0 -65084.964)
(-284865.81 -4737.4997 0 -29.463804 0 -65745.063)
(-286070.14 -4681.9855 0 -37.041511 0 -66024.734)
(-293517.08 -4611.3049 0 -46.834137 0 -67745.519)
(-343742 -4498.2675 0 -68.464774 0 -79340.877)
(-700822.88 -4216.7392 0 -171.48971 0 -161767.93)
(-1410157.9 -2809.0306 0 -367.67858 0 -325505.9)
)
;
    }
    bottom
    {
        type            calculated;
        value           nonuniform List<symmTensor> 
40
(
(-1187546.7 -203.99394 0 -112.64534 0 -274075.24)
(-1360791.8 -390.97888 0 -142.35877 0 -314061.72)
(-1290279.7 -623.95099 0 -146.27809 0 -297790.62)
(-1199670.3 -868.52364 0 -146.22291 0 -276880.74)
(-1103813.7 -1112.6098 0 -144.78973 0 -254759.64)
(-1010225.6 -1353.9326 0 -142.82502 0 -233161.95)
(-919929.48 -1591.6074 0 -140.4577 0 -212323.83)
(-833089.16 -1824.9843 0 -137.71326 0 -192283.12)
(-749705.32 -2053.4424 0 -134.6012 0 -173039.98)
(-669762.18 -2276.3735 0 -131.13064 0 -154590.76)
(-593242.01 -2493.1851 0 -127.31176 0 -136931.38)
(-520125.96 -2703.302 0 -123.15576 0 -120057.49)
(-450393.69 -2906.1687 0 -118.67478 0 -103964.39)
(-384023.36 -3101.2508 0 -113.88183 0 -88647.056)
(-320991.59 -3288.0365 0 -108.79073 0 -74100.089)
(-261273.57 -3466.0379 0 -103.41608 0 -60317.765)
(-204843.04 -3634.7924 0 -97.773194 0 -47294.034)
(-151672.48 -3793.8634 0 -91.878045 0 -35022.545)
(-101733.1 -3942.842 0 -85.747202 0 -23496.656)
(-54994.955 -4081.3474 0 -79.397761 0 -12709.466)
(-11427.041 -4209.0281 0 -72.847298 0 -2653.8204)
(29002.609 -4325.5625 0 -66.113785 0 6677.6527)
(66326.878 -4430.6592 0 -59.215561 0 15292.537)
(100579.44 -4524.0581 0 -52.171251 0 23198.6)
(131794.73 -4605.5304 0 -44.999748 0 30403.785)
(160007.85 -4674.8788 0 -37.72014 0 36916.184)
(185254.69 -4731.9379 0 -30.351796 0 42744.078)
(207572.24 -4776.5747 0 -22.914507 0 47895.999)
(226999.22 -4808.6897 0 -15.428819 0 52380.874)
(243575.16 -4828.2231 0 -7.9155752 0 56207.825)
(257336.91 -4835.1552 0 -0.39416748 0 59385.35)
(268314.41 -4829.4995 0 7.1190647 0 61920.353)
(276528.45 -4811.2906 0 14.609965 0 63817.629)
(282000.8 -4780.5872 0 22.060992 0 65082.198)
(284853.63 -4737.5094 0 29.47001 0 65742.254)
(286055.77 -4682.0004 0 37.048934 0 66021.42)
(293502.31 -4611.3123 0 46.84182 0 67742.113)
(343731.67 -4498.2651 0 68.470147 0 79338.493)
(700818.56 -4216.7383 0 171.49194 0 161766.94)
(1410155.1 -2809.0415 0 367.68005 0 325505.26)
)
;
    }
    frontAndBack
    {
        type            empty;
    }
}


// ************************************************************************* //
