/*--------------------------------*- C++ -*----------------------------------*\
| =========                 |                                                 |
| \\      /  F ield         | OpenFOAM: The Open Source CFD Toolbox           |
|  \\    /   O peration     | Version:  2512                                  |
|   \\  /    A nd           | Website:  www.openfoam.com                      |
|    \\/     M anipulation  |                                                 |
\*---------------------------------------------------------------------------*/
FoamFile
{
    version     2.0;
    format      ascii;
    arch        "LSB;label=32;scalar=64";
    class       volVectorField;
    location    "0.9";
    object      D_0;
}
// * * * * * * * * * * * * * * * * * * * * * * * * * * * * * * * * * * * * * //

dimensions      [0 1 0 0 0 0 0];

internalField   nonuniform List<vector> 
160
(
(-8.367934e-08 -4.4344467e-08 0)
(-2.3897727e-07 -1.8749364e-07 0)
(-3.8484602e-07 -4.2519843e-07 0)
(-5.2097333e-07 -7.5523185e-07 0)
(-6.476493e-07 -1.1720578e-06 0)
(-7.6514748e-07 -1.6694997e-06 0)
(-8.7374641e-07 -2.241522e-06 0)
(-9.7372415e-07 -2.8822792e-06 0)
(-1.0653586e-06 -3.5861155e-06 0)
(-1.1489274e-06 -4.3475614e-06 0)
(-1.2247078e-06 -5.1613329e-06 0)
(-1.2929767e-06 -6.0223309e-06 0)
(-1.3540104e-06 -6.9256406e-06 0)
(-1.4080847e-06 -7.8665315e-06 0)
(-1.455475e-06 -8.8404568e-06 0)
(-1.4964558e-06 -9.843053e-06 0)
(-1.5313014e-06 -1.087014e-05 0)
(-1.560285e-06 -1.1917719e-05 0)
(-1.5836793e-06 -1.2981976e-05 0)
(-1.6017562e-06 -1.4059275e-05 0)
(-1.614787e-06 -1.5146163e-05 0)
(-1.6230419e-06 -1.6239369e-05 0)
(-1.6267906e-06 -1.7335798e-05 0)
(-1.6263018e-06 -1.8432539e-05 0)
(-1.6218433e-06 -1.9526857e-05 0)
(-1.6136821e-06 -2.0616196e-05 0)
(-1.6020843e-06 -2.1698178e-05 0)
(-1.5873151e-06 -2.2770602e-05 0)
(-1.5696385e-06 -2.3831444e-05 0)
(-1.549318e-06 -2.4878854e-05 0)
(-1.5266155e-06 -2.591116e-05 0)
(-1.5017925e-06 -2.6926861e-05 0)
(-1.4751091e-06 -2.7924634e-05 0)
(-1.446824e-06 -2.8903328e-05 0)
(-1.4171927e-06 -2.986198e-05 0)
(-1.3864646e-06 -3.0799836e-05 0)
(-1.3548728e-06 -3.1716407e-05 0)
(-1.322628e-06 -3.2611054e-05 0)
(-1.2894652e-06 -3.3479567e-05 0)
(-1.2559066e-06 -3.4273113e-05 0)
(-2.3677187e-08 -1.497275e-08 0)
(-7.6394305e-08 -1.5661458e-07 0)
(-1.2557064e-07 -3.965152e-07 0)
(-1.7118425e-07 -7.2874975e-07 0)
(-2.1352482e-07 -1.1475226e-06 0)
(-2.5277353e-07 -1.646792e-06 0)
(-2.8904762e-07 -2.2205704e-06 0)
(-3.2244587e-07 -2.8630249e-06 0)
(-3.5306239e-07 -3.5685023e-06 0)
(-3.8099009e-07 -4.3315337e-06 0)
(-4.0632149e-07 -5.1468353e-06 0)
(-4.2914888e-07 -6.0093081e-06 0)
(-4.4956441e-07 -6.9140374e-06 0)
(-4.6765998e-07 -7.8562927e-06 0)
(-4.8352737e-07 -8.8315275e-06 0)
(-4.9725812e-07 -9.8353784e-06 0)
(-5.0894357e-07 -1.0863665e-05 0)
(-5.1867483e-07 -1.191239e-05 0)
(-5.2654278e-07 -1.2977737e-05 0)
(-5.3263807e-07 -1.4056073e-05 0)
(-5.3705106e-07 -1.5143943e-05 0)
(-5.3987189e-07 -1.6238077e-05 0)
(-5.4119039e-07 -1.7335381e-05 0)
(-5.4109615e-07 -1.8432943e-05 0)
(-5.3967843e-07 -1.9528029e-05 0)
(-5.3702623e-07 -2.0618082e-05 0)
(-5.3322825e-07 -2.1700725e-05 0)
(-5.2837287e-07 -2.2773757e-05 0)
(-5.2254817e-07 -2.3835154e-05 0)
(-5.1584197e-07 -2.4883067e-05 0)
(-5.083419e-07 -2.5915823e-05 0)
(-5.001357e-07 -2.6931922e-05 0)
(-4.9131207e-07 -2.7930038e-05 0)
(-4.8196339e-07 -2.8909018e-05 0)
(-4.7219596e-07 -2.9867874e-05 0)
(-4.6216963e-07 -3.0805739e-05 0)
(-4.5224976e-07 -3.1721662e-05 0)
(-4.435056e-07 -3.2613685e-05 0)
(-4.3893374e-07 -3.3476062e-05 0)
(-4.407032e-07 -3.4295537e-05 0)
(2.3676559e-08 -1.4972624e-08 0)
(7.6392228e-08 -1.5661436e-07 0)
(1.2556707e-07 -3.9651495e-07 0)
(1.7117918e-07 -7.287495e-07 0)
(2.1351824e-07 -1.1475223e-06 0)
(2.5276544e-07 -1.6467918e-06 0)
(2.8903802e-07 -2.2205702e-06 0)
(3.2243478e-07 -2.8630247e-06 0)
(3.5304981e-07 -3.568502e-06 0)
(3.8097604e-07 -4.3315334e-06 0)
(4.0630599e-07 -5.1468351e-06 0)
(4.2913197e-07 -6.0093079e-06 0)
(4.495461e-07 -6.9140371e-06 0)
(4.6764034e-07 -7.8562925e-06 0)
(4.8350643e-07 -8.8315273e-06 0)
(4.9723593e-07 -9.8353782e-06 0)
(5.0892018e-07 -1.0863665e-05 0)
(5.1865031e-07 -1.191239e-05 0)
(5.2651719e-07 -1.2977737e-05 0)
(5.3261146e-07 -1.4056072e-05 0)
(5.3702351e-07 -1.5143943e-05 0)
(5.3984347e-07 -1.6238077e-05 0)
(5.4116118e-07 -1.7335381e-05 0)
(5.410662e-07 -1.8432943e-05 0)
(5.3964783e-07 -1.9528028e-05 0)
(5.3699504e-07 -2.0618082e-05 0)
(5.3319651e-07 -2.1700725e-05 0)
(5.2834063e-07 -2.2773757e-05 0)
(5.2251548e-07 -2.3835154e-05 0)
(5.1580886e-07 -2.4883067e-05 0)
(5.083084e-07 -2.5915823e-05 0)
(5.001018e-07 -2.6931922e-05 0)
(4.912777e-07 -2.7930038e-05 0)
(4.8192847e-07 -2.8909018e-05 0)
(4.7216047e-07 -2.9867873e-05 0)
(4.6213365e-07 -3.0805739e-05 0)
(4.5221345e-07 -3.1721662e-05 0)
(4.4346911e-07 -3.2613685e-05 0)
(4.3889709e-07 -3.3476062e-05 0)
(4.4066645e-07 -3.4295537e-05 0)
(8.3678662e-08 -4.4344043e-08 0)
(2.3897527e-07 -1.8749299e-07 0)
(3.8484268e-07 -4.2519773e-07 0)
(5.2096862e-07 -7.5523114e-07 0)
(6.4764319e-07 -1.1720571e-06 0)
(7.6513996e-07 -1.669499e-06 0)
(8.7373748e-07 -2.2415213e-06 0)
(9.7371381e-07 -2.8822785e-06 0)
(1.0653469e-06 -3.5861148e-06 0)
(1.1489143e-06 -4.3475607e-06 0)
(1.2246933e-06 -5.1613322e-06 0)
(1.2929609e-06 -6.0223302e-06 0)
(1.3539932e-06 -6.9256399e-06 0)
(1.4080663e-06 -7.8665308e-06 0)
(1.4554553e-06 -8.8404561e-06 0)
(1.496435e-06 -9.8430524e-06 0)
(1.5312794e-06 -1.0870139e-05 0)
(1.560262e-06 -1.1917719e-05 0)
(1.5836552e-06 -1.2981975e-05 0)
(1.6017312e-06 -1.4059274e-05 0)
(1.6147611e-06 -1.5146163e-05 0)
(1.6230152e-06 -1.6239368e-05 0)
(1.6267631e-06 -1.7335798e-05 0)
(1.6262736e-06 -1.8432539e-05 0)
(1.6218145e-06 -1.9526857e-05 0)
(1.6136527e-06 -2.0616196e-05 0)
(1.6020544e-06 -2.1698178e-05 0)
(1.5872847e-06 -2.2770602e-05 0)
(1.5696077e-06 -2.3831444e-05 0)
(1.5492867e-06 -2.4878854e-05 0)
(1.5265838e-06 -2.591116e-05 0)
(1.5017603e-06 -2.6926861e-05 0)
(1.4750764e-06 -2.7924633e-05 0)
(1.4467908e-06 -2.8903327e-05 0)
(1.417159e-06 -2.9861979e-05 0)
(1.3864305e-06 -3.0799836e-05 0)
(1.3548382e-06 -3.1716407e-05 0)
(1.322593e-06 -3.2611054e-05 0)
(1.2894299e-06 -3.3479567e-05 0)
(1.2558711e-06 -3.4273113e-05 0)
)
;

boundaryField
{
    left
    {
        nonOrthogonalCorrections true;
        type            fixedDisplacement;
        value           uniform (0 0 0);
    }
    right
    {
        type            solidTraction;
        nonOrthogonalCorrections true;
        useUndeformedArea false;
        traction        uniform (0 0 0);
        pressure        uniform 0;
        secondOrder     false;
        extrapolateValue false;
        setEffectiveTraction false;
        relaxationFactor 1;
        value           nonuniform List<vector> 4((-1.2206359e-06 -3.4547604e-05 0) (-4.2869977e-07 -3.4707674e-05 0) (4.2866309e-07 -3.4707675e-05 0) (1.2206004e-06 -3.4547604e-05 0));
        gradient        uniform (0 0 0);
    }
    top
    {
        type            solidTraction;
        nonOrthogonalCorrections true;
        useUndeformedArea false;
        traction        uniform (0 0 0);
        pressure        uniform 0;
        secondOrder     false;
        extrapolateValue false;
        setEffectiveTraction false;
        relaxationFactor 1;
        value           nonuniform List<vector> 
40
(
(1.3782113e-07 -6.9457245e-08 0)
(3.3486574e-07 -2.1660567e-07 0)
(5.2601924e-07 -4.5308772e-07 0)
(7.0676223e-07 -7.8142137e-07 0)
(8.7525228e-07 -1.1964146e-06 0)
(1.0315578e-06 -1.6920529e-06 0)
(1.1760005e-06 -2.2623234e-06 0)
(1.3089478e-06 -2.9013842e-06 0)
(1.4307708e-06 -3.6035796e-06 0)
(1.5418399e-06 -4.3634402e-06 0)
(1.6425252e-06 -5.1756819e-06 0)
(1.7331956e-06 -6.0352054e-06 0)
(1.8142199e-06 -6.9370959e-06 0)
(1.8859657e-06 -7.8766226e-06 0)
(1.9488004e-06 -8.8492388e-06 0)
(2.00309e-06 -9.8505808e-06 0)
(2.0492001e-06 -1.0876468e-05 0)
(2.0874952e-06 -1.1922903e-05 0)
(2.118339e-06 -1.2986069e-05 0)
(2.1420939e-06 -1.4062332e-05 0)
(2.1591217e-06 -1.5148238e-05 0)
(2.1697829e-06 -1.6240516e-05 0)
(2.1744369e-06 -1.7336071e-05 0)
(2.1734421e-06 -1.8431992e-05 0)
(2.1671555e-06 -1.9525543e-05 0)
(2.1559333e-06 -2.0614168e-05 0)
(2.1401302e-06 -2.169549e-05 0)
(2.1200997e-06 -2.2767306e-05 0)
(2.0961942e-06 -2.3827593e-05 0)
(2.0687645e-06 -2.4874501e-05 0)
(2.0381601e-06 -2.5906357e-05 0)
(2.0047296e-06 -2.6921661e-05 0)
(1.9688208e-06 -2.7919087e-05 0)
(1.9307819e-06 -2.8897488e-05 0)
(1.8909618e-06 -2.9855897e-05 0)
(1.8496789e-06 -3.0793537e-05 0)
(1.8069681e-06 -3.1709718e-05 0)
(1.7604817e-06 -3.2602872e-05 0)
(1.6978565e-06 -3.3462069e-05 0)
(1.5271308e-06 -3.4237324e-05 0)
)
;
        gradient        uniform (0 0 0);
    }
    bottom
    {
        type            solidTraction;
        nonOrthogonalCorrections true;
        useUndeformedArea false;
        traction        uniform (0 0 0);
        pressure        uniform 0;
        secondOrder     false;
        extrapolateValue false;
        setEffectiveTraction false;
        relaxationFactor 1;
        value           nonuniform List<vector> 
40
(
(-1.3782202e-07 -6.9457825e-08 0)
(-3.3486782e-07 -2.166065e-07 0)
(-5.260226e-07 -4.5308862e-07 0)
(-7.0676696e-07 -7.8142228e-07 0)
(-8.7525839e-07 -1.1964155e-06 0)
(-1.0315653e-06 -1.6920539e-06 0)
(-1.1760094e-06 -2.2623243e-06 0)
(-1.3089581e-06 -2.9013851e-06 0)
(-1.4307825e-06 -3.6035805e-06 0)
(-1.5418531e-06 -4.3634411e-06 0)
(-1.6425396e-06 -5.1756828e-06 0)
(-1.7332114e-06 -6.0352063e-06 0)
(-1.814237e-06 -6.9370967e-06 0)
(-1.8859841e-06 -7.8766234e-06 0)
(-1.94882e-06 -8.8492396e-06 0)
(-2.0031108e-06 -9.8505816e-06 0)
(-2.049222e-06 -1.0876469e-05 0)
(-2.0875182e-06 -1.1922904e-05 0)
(-2.118363e-06 -1.2986069e-05 0)
(-2.1421189e-06 -1.4062332e-05 0)
(-2.1591476e-06 -1.5148239e-05 0)
(-2.1698096e-06 -1.6240516e-05 0)
(-2.1744644e-06 -1.7336072e-05 0)
(-2.1734702e-06 -1.8431992e-05 0)
(-2.1671843e-06 -1.9525543e-05 0)
(-2.1559627e-06 -2.0614169e-05 0)
(-2.1401601e-06 -2.169549e-05 0)
(-2.1201301e-06 -2.2767307e-05 0)
(-2.096225e-06 -2.3827593e-05 0)
(-2.0687957e-06 -2.4874502e-05 0)
(-2.0381919e-06 -2.5906357e-05 0)
(-2.0047619e-06 -2.6921661e-05 0)
(-1.9688535e-06 -2.7919088e-05 0)
(-1.9308152e-06 -2.8897489e-05 0)
(-1.8909954e-06 -2.9855897e-05 0)
(-1.8497129e-06 -3.0793537e-05 0)
(-1.8070027e-06 -3.1709718e-05 0)
(-1.7605167e-06 -3.2602872e-05 0)
(-1.6978918e-06 -3.3462069e-05 0)
(-1.5271661e-06 -3.4237324e-05 0)
)
;
        gradient        uniform (0 0 0);
    }
    frontAndBack
    {
        type            empty;
    }
}


// ************************************************************************* //
