/*--------------------------------*- C++ -*----------------------------------*\
| =========                 |                                                 |
| \\      /  F ield         | OpenFOAM: The Open Source CFD Toolbox           |
|  \\    /   O peration     | Version:  2512                                  |
|   \\  /    A nd           | Website:  www.openfoam.com                      |
|    \\/     M anipulation  |                                                 |
\*---------------------------------------------------------------------------*/
FoamFile
{
    version     2.0;
    format      ascii;
    arch        "LSB;label=32;scalar=64";
    class       volSymmTensorField;
    location    "0.9";
    object      epsilon;
}
// * * * * * * * * * * * * * * * * * * * * * * * * * * * * * * * * * * * * * //

dimensions      [0 0 0 0 0 0 0];

internalField   nonuniform List<symmTensor> 
160
(
(-5.5272397e-06 -9.330095e-08 -1.2924697e-22 1.5553002e-06 6.4623485e-23 0)
(-5.972927e-06 -2.7717657e-07 5.1698788e-22 1.7334113e-06 -1.0339758e-21 0)
(-5.679734e-06 -2.7618154e-07 -3.6189152e-21 1.7075448e-06 -2.0679515e-21 0)
(-5.3227038e-06 -2.770578e-07 4.1359031e-21 1.6001808e-06 2.0679515e-21 0)
(-4.9525889e-06 -2.7087358e-07 -1.0339758e-21 1.4886366e-06 -1.2407709e-20 0)
(-4.5903881e-06 -2.6350896e-07 -3.1019273e-21 1.3796213e-06 4.1359031e-21 0)
(-4.2387413e-06 -2.5585274e-07 0 1.2740355e-06 0 0)
(-3.8980305e-06 -2.481464e-07 -2.0679515e-21 1.1718002e-06 4.1359031e-21 0)
(-3.5682587e-06 -2.4043132e-07 -4.1359031e-21 1.0728636e-06 8.2718061e-21 0)
(-3.2494068e-06 -2.3271564e-07 -2.0679515e-21 9.772065e-07 0 0)
(-2.9414592e-06 -2.2500107e-07 2.0679515e-21 8.8482145e-07 -3.3087225e-20 0)
(-2.6444016e-06 -2.172882e-07 8.2718061e-21 7.9570351e-07 -8.2718061e-21 0)
(-2.3582191e-06 -2.095773e-07 -2.0679515e-21 7.0984813e-07 -4.9630837e-20 0)
(-2.0828961e-06 -2.0186857e-07 -8.2718061e-21 6.2725056e-07 -4.9630837e-20 0)
(-1.8184158e-06 -1.9416217e-07 -6.2038546e-21 5.4790575e-07 6.6174449e-20 0)
(-1.5647603e-06 -1.8645827e-07 0 4.7180833e-07 4.9630837e-20 0)
(-1.3219107e-06 -1.78757e-07 0 3.9895265e-07 -2.4815418e-19 0)
(-1.0898471e-06 -1.7105851e-07 -4.1359031e-21 3.2933273e-07 6.6174449e-20 0)
(-8.6854875e-07 -1.633629e-07 4.1359031e-21 2.6294234e-07 -9.9261674e-20 0)
(-6.5799392e-07 -1.5567032e-07 0 1.9977498e-07 0 0)
(-4.5816013e-07 -1.4798084e-07 1.2407709e-20 1.3982389e-07 0 0)
(-2.6902413e-07 -1.402946e-07 0 8.3082119e-08 3.3087225e-20 0)
(-9.0561992e-08 -1.3261167e-07 -4.1359031e-21 2.9542473e-08 0 0)
(7.7250865e-08 -1.2493217e-07 2.4815418e-20 -2.0802422e-08 -1.6543612e-19 0)
(2.3443961e-07 -1.1725623e-07 0 -6.7960118e-08 0 0)
(3.8102997e-07 -1.09584e-07 -4.1359031e-21 -1.1193835e-07 -1.323489e-19 0)
(5.1704829e-07 -1.0191582e-07 0 -1.5274504e-07 -1.6543612e-19 0)
(6.4252171e-07 -9.4252187e-08 1.2407709e-20 -1.9038831e-07 3.3087225e-20 0)
(7.5747831e-07 -8.6593901e-08 4.1359031e-21 -2.2487629e-07 0 0)
(8.6194612e-07 -7.8941368e-08 4.1359031e-21 -2.5621649e-07 -1.323489e-19 0)
(9.5594954e-07 -7.1295414e-08 0 -2.8441391e-07 -6.6174449e-20 0)
(1.0395017e-06 -6.3661714e-08 8.2718061e-21 -3.0946495e-07 -1.9852335e-19 0)
(1.1125853e-06 -5.6066795e-08 1.2407709e-20 -3.3133359e-07 6.6174449e-20 0)
(1.1751157e-06 -4.8616403e-08 1.2407709e-20 -3.4986157e-07 -2.646978e-19 0)
(1.2270833e-06 -4.1781656e-08 -4.1359031e-21 -3.6448525e-07 1.323489e-19 0)
(1.2704797e-06 -3.7623644e-08 0 -3.741078e-07 1.323489e-19 0)
(1.3282137e-06 -4.7029379e-08 2.0679515e-21 -3.8051428e-07 -6.6174449e-20 0)
(1.5166851e-06 -9.8123523e-08 -4.1359031e-21 -4.5006088e-07 -6.6174449e-20 0)
(2.7492261e-06 -4.2510586e-07 8.2718061e-21 -9.0229505e-07 -6.6174449e-20 0)
(5.5501963e-06 1.6543606e-07 0 -5.4751837e-06 6.6174449e-20 0)
(-2.1392534e-06 -8.1241159e-07 -1.9387046e-22 3.0509363e-07 1.2924697e-22 0)
(-2.0412388e-06 -6.9360747e-07 -1.1632227e-21 6.0686554e-07 -1.2924697e-21 0)
(-1.9096855e-06 -6.4023753e-07 -1.0339758e-21 5.814701e-07 4.1359031e-21 0)
(-1.7792978e-06 -6.1075377e-07 -1.5509636e-21 5.3859038e-07 7.2378304e-21 0)
(-1.654044e-06 -5.9090993e-07 -2.5849394e-21 4.9885873e-07 -1.2407709e-20 0)
(-1.5329859e-06 -5.7318956e-07 -3.6189152e-21 4.6195773e-07 -8.2718061e-21 0)
(-1.415728e-06 -5.5590222e-07 -5.6868667e-21 4.2665003e-07 -4.1359031e-21 0)
(-1.3021508e-06 -5.3869565e-07 -2.5849394e-21 3.9255099e-07 -4.1359031e-21 0)
(-1.1922234e-06 -5.2151091e-07 -3.6189152e-21 3.5956706e-07 0 0)
(-1.0859359e-06 -5.0433975e-07 -5.1698788e-21 3.276786e-07 -2.4815418e-20 0)
(-9.8328296e-07 -4.8718185e-07 -6.2038546e-21 2.9688099e-07 1.6543612e-20 0)
(-8.8425968e-07 -4.7003809e-07 -3.1019273e-21 2.671723e-07 -9.0989867e-20 0)
(-7.8886115e-07 -4.5290951e-07 -3.1019273e-21 2.3855093e-07 -3.3087225e-20 0)
(-6.9708212e-07 -4.3579718e-07 -4.1359031e-21 2.1101529e-07 -6.6174449e-20 0)
(-6.08917e-07 -4.187022e-07 -3.1019273e-21 1.845637e-07 6.6174449e-20 0)
(-5.2435984e-07 -4.0162561e-07 -3.1019273e-21 1.5919438e-07 1.6543612e-20 0)
(-4.4340436e-07 -3.8456843e-07 -5.1698788e-21 1.3490544e-07 -3.3087225e-20 0)
(-3.6604395e-07 -3.6753162e-07 -2.0679515e-21 1.1169491e-07 6.6174449e-20 0)
(-2.9227169e-07 -3.5051607e-07 -3.1019273e-21 8.9560727e-08 3.3087225e-20 0)
(-2.2208036e-07 -3.3352264e-07 -6.2038546e-21 6.8500726e-08 1.9852335e-19 0)
(-1.5546251e-07 -3.1655211e-07 -1.0339758e-21 4.8512677e-08 6.6174449e-20 0)
(-9.2410383e-08 -2.9960522e-07 -8.2718061e-21 2.9594267e-08 3.3087225e-20 0)
(-3.291604e-08 -2.8268265e-07 -3.1019273e-21 1.1743117e-08 9.9261674e-20 0)
(2.3028689e-08 -2.6578507e-07 -9.3057819e-21 -5.0432174e-09 -1.6543612e-19 0)
(7.5432159e-08 -2.4891311e-07 -4.1359031e-21 -2.0767239e-08 1.6543612e-19 0)
(1.2430292e-07 -2.3206748e-07 -4.1359031e-21 -3.5431529e-08 6.6174449e-20 0)
(1.6964972e-07 -2.15249e-07 -1.1373733e-20 -4.9038734e-08 -1.6543612e-19 0)
(2.1148157e-07 -1.9845863e-07 -1.0339758e-20 -6.1591588e-08 0 0)
(2.4980752e-07 -1.8169665e-07 -6.2038546e-21 -7.3092627e-08 0 0)
(2.8463605e-07 -1.6496094e-07 -1.0339758e-21 -8.3543589e-08 6.6174449e-20 0)
(3.1597371e-07 -1.4824521e-07 -4.1359031e-21 -9.2944144e-08 1.323489e-19 0)
(3.4382197e-07 -1.3153774e-07 -7.2378304e-21 -1.012874e-07 -1.323489e-19 0)
(3.6816717e-07 -1.1481293e-07 -2.0679515e-21 -1.0853808e-07 0 0)
(3.8893938e-07 -9.7965992e-08 -4.1359031e-21 -1.1451913e-07 -1.9852335e-19 0)
(4.0583576e-07 -8.0421407e-08 -7.2378304e-21 -1.1838401e-07 6.6174449e-20 0)
(4.1763665e-07 -5.91072e-08 -5.1698788e-21 -1.1647853e-07 -6.6174449e-20 0)
(4.1986385e-07 -1.8472434e-08 -3.1019273e-21 -9.6687064e-08 0 0)
(4.0155103e-07 1.0309273e-07 -4.1359031e-21 -3.5170423e-08 6.6174449e-20 0)
(3.5542108e-07 5.4073101e-07 -6.2038546e-21 -9.2034447e-08 6.6174449e-20 0)
(6.4828697e-07 1.1521249e-06 -6.2038546e-21 -1.7405803e-06 6.6174449e-20 0)
(2.1392145e-06 -8.1240898e-07 -6.4623485e-23 -3.0508851e-07 -4.2005265e-22 0)
(2.0411973e-06 -6.9360612e-07 2.5849394e-22 -6.0685385e-07 -1.0339758e-21 0)
(1.9096432e-06 -6.4023571e-07 0 -5.8145663e-07 -5.1698788e-22 0)
(1.7792553e-06 -6.1075117e-07 -7.7548182e-22 -5.3857654e-07 4.1359031e-21 0)
(1.6540012e-06 -5.9090655e-07 1.5509636e-21 -4.9884485e-07 -6.2038546e-21 0)
(1.5329431e-06 -5.7318546e-07 -1.0339758e-21 -4.6194388e-07 4.1359031e-21 0)
(1.4156853e-06 -5.5589745e-07 4.1359031e-21 -4.2663621e-07 -4.1359031e-21 0)
(1.3021083e-06 -5.3869024e-07 1.0339758e-21 -3.9253724e-07 2.4815418e-20 0)
(1.1921813e-06 -5.2150488e-07 -2.0679515e-21 -3.5955341e-07 -2.4815418e-20 0)
(1.0858944e-06 -5.0433312e-07 0 -3.2766509e-07 0 0)
(9.8324215e-07 -4.8717465e-07 -2.0679515e-21 -2.9686768e-07 -2.4815418e-20 0)
(8.8421977e-07 -4.7003032e-07 0 -2.6715924e-07 0 0)
(7.888223e-07 -4.529012e-07 0 -2.3853818e-07 -1.6543612e-20 0)
(6.9704449e-07 -4.3578835e-07 0 -2.1100291e-07 -6.6174449e-20 0)
(6.0888072e-07 -4.1869288e-07 2.0679515e-21 -1.8455174e-07 6.6174449e-20 0)
(5.2432504e-07 -4.0161582e-07 5.1698788e-21 -1.5918289e-07 -3.3087225e-20 0)
(4.4337116e-07 -3.845582e-07 2.0679515e-21 -1.3489448e-07 -4.9630837e-20 0)
(3.6601246e-07 -3.6752097e-07 -3.1019273e-21 -1.1168451e-07 3.3087225e-20 0)
(2.9224201e-07 -3.5050503e-07 -1.0339758e-21 -8.9550923e-08 0 0)
(2.2205258e-07 -3.3351124e-07 -3.1019273e-21 -6.8491551e-08 3.3087225e-20 0)
(1.5543668e-07 -3.1654039e-07 0 -4.8504152e-08 -3.3087225e-20 0)
(9.2386562e-08 -2.9959321e-07 2.0679515e-21 -2.9586406e-08 3.3087225e-20 0)
(3.289424e-08 -2.8267039e-07 -4.1359031e-21 -1.173592e-08 -3.3087225e-20 0)
(-2.3048502e-08 -2.6577257e-07 -3.1019273e-21 5.0497703e-09 0 0)
(-7.5450096e-08 -2.4890042e-07 -1.0339758e-21 2.0773192e-08 -3.3087225e-20 0)
(-1.2431918e-07 -2.3205461e-07 0 3.5436925e-08 0 0)
(-1.6966456e-07 -2.1523602e-07 1.0339758e-21 4.9043503e-08 -6.6174449e-20 0)
(-2.1149521e-07 -1.9844567e-07 1.0339758e-21 6.1595331e-08 1.323489e-19 0)
(-2.4982014e-07 -1.8168381e-07 -1.0339758e-21 7.30947e-08 -1.323489e-19 0)
(-2.8464796e-07 -1.6494821e-07 1.0339758e-21 8.3543741e-08 -6.6174449e-20 0)
(-3.159856e-07 -1.4823231e-07 1.0339758e-21 9.2943467e-08 6.6174449e-20 0)
(-3.4383486e-07 -1.3152444e-07 -1.0339758e-21 1.0128845e-07 -6.6174449e-20 0)
(-3.6818184e-07 -1.1479951e-07 -1.0339758e-21 1.0854289e-07 2.646978e-19 0)
(-3.8895522e-07 -9.7953111e-08 -2.0679515e-21 1.1452665e-07 -3.3087225e-19 0)
(-4.0585087e-07 -8.0409442e-08 2.0679515e-21 1.183903e-07 0 0)
(-4.1764898e-07 -5.9095938e-08 1.0339758e-21 1.1648004e-07 6.6174449e-20 0)
(-4.1987239e-07 -1.8461301e-08 -3.1019273e-21 9.668413e-08 -1.323489e-19 0)
(-4.01557e-07 1.0310379e-07 -1.0339758e-21 3.5166571e-08 1.323489e-19 0)
(-3.5542534e-07 5.407411e-07 -2.0679515e-21 9.203143e-08 0 0)
(-6.4828732e-07 1.1521316e-06 1.0339758e-21 1.7405726e-06 3.9704669e-19 0)
(5.5272053e-06 -9.3299583e-08 7.7548182e-22 -1.555291e-06 -6.4623485e-22 0)
(5.9728889e-06 -2.7717546e-07 3.6189152e-21 -1.7334003e-06 -1.5509636e-21 0)
(5.6796942e-06 -2.7617989e-07 1.0339758e-21 -1.7075326e-06 -1.5509636e-21 0)
(5.3226631e-06 -2.7705524e-07 3.1019273e-21 -1.6001682e-06 -1.0339758e-21 0)
(4.9525477e-06 -2.7087021e-07 7.2378304e-21 -1.4886239e-06 -6.2038546e-21 0)
(4.5903468e-06 -2.6350486e-07 6.2038546e-21 -1.3796085e-06 4.1359031e-21 0)
(4.2386999e-06 -2.5584797e-07 1.0339758e-20 -1.2740228e-06 8.2718061e-21 0)
(3.8979893e-06 -2.4814099e-07 6.2038546e-21 -1.1717874e-06 -8.2718061e-21 0)
(3.5682178e-06 -2.4042529e-07 -4.1359031e-21 -1.0728509e-06 3.3087225e-20 0)
(3.2493665e-06 -2.3270901e-07 1.2407709e-20 -9.7719402e-07 0 0)
(2.9414196e-06 -2.2499386e-07 6.2038546e-21 -8.8480917e-07 8.2718061e-21 0)
(2.6443628e-06 -2.1728043e-07 8.2718061e-21 -7.9569148e-07 -8.2718061e-20 0)
(2.3581814e-06 -2.0956898e-07 1.0339758e-20 -7.098364e-07 4.9630837e-20 0)
(2.0828596e-06 -2.0185974e-07 2.0679515e-21 -6.2723917e-07 -1.6543612e-20 0)
(1.8183805e-06 -1.9415285e-07 1.4475661e-20 -5.4789476e-07 4.9630837e-20 0)
(1.5647265e-06 -1.8644848e-07 4.1359031e-21 -4.7179778e-07 1.6543612e-20 0)
(1.3218784e-06 -1.7874677e-07 4.1359031e-21 -3.9894257e-07 3.3087225e-20 0)
(1.0898165e-06 -1.7104786e-07 4.1359031e-21 -3.2932317e-07 -3.3087225e-20 0)
(8.6851985e-07 -1.6335187e-07 4.1359031e-21 -2.6293332e-07 -6.6174449e-20 0)
(6.5796684e-07 -1.5565892e-07 4.1359031e-21 -1.9976653e-07 1.6543612e-19 0)
(4.5813493e-07 -1.4796913e-07 2.0679515e-20 -1.3981603e-07 6.6174449e-20 0)
(2.6900086e-07 -1.4028259e-07 4.1359031e-21 -8.3074857e-08 -1.323489e-19 0)
(9.0540662e-08 -1.3259941e-07 1.6543612e-20 -2.9535812e-08 -3.3087225e-20 0)
(-7.7270293e-08 -1.2491968e-07 8.2718061e-21 2.0808493e-08 9.9261674e-20 0)
(-2.3445722e-07 -1.1724353e-07 4.1359031e-21 6.7965626e-08 -1.323489e-19 0)
(-3.8104589e-07 -1.0957112e-07 1.2407709e-20 1.1194333e-07 6.6174449e-20 0)
(-5.1706269e-07 -1.019028e-07 1.2407709e-20 1.5274946e-07 -6.6174449e-20 0)
(-6.4253492e-07 -9.4239228e-08 -8.2718061e-21 1.9039206e-07 1.9852335e-19 0)
(-7.5749096e-07 -8.6581134e-08 1.6543612e-20 2.2487926e-07 1.9852335e-19 0)
(-8.6195899e-07 -7.8928782e-08 1.6543612e-20 2.5621881e-07 6.6174449e-20 0)
(-9.5596319e-07 -7.128258e-08 2.0679515e-20 2.8441628e-07 1.323489e-19 0)
(-1.0395158e-06 -6.3648213e-08 8.2718061e-21 3.0946836e-07 6.6174449e-20 0)
(-1.1125994e-06 -5.6053042e-08 1.2407709e-20 3.313385e-07 6.6174449e-20 0)
(-1.1751293e-06 -4.8603388e-08 4.1359031e-21 3.4986718e-07 1.323489e-19 0)
(-1.2270968e-06 -4.1769927e-08 8.2718061e-21 3.6448992e-07 -6.6174449e-20 0)
(-1.2704932e-06 -3.7612809e-08 1.0339758e-20 3.7411033e-07 0 0)
(-1.3282258e-06 -4.7018322e-08 1.4475661e-20 3.80515e-07 -6.6174449e-20 0)
(-1.5166937e-06 -9.811208e-08 4.1359031e-21 4.5006106e-07 1.323489e-19 0)
(-2.7492307e-06 -4.2509541e-07 4.1359031e-21 9.0229528e-07 1.9852335e-19 0)
(-5.5501984e-06 1.6544204e-07 1.0339758e-20 5.4751859e-06 -2.646978e-19 0)
)
;

boundaryField
{
    left
    {
        type            calculated;
        value           nonuniform List<symmTensor> 4((-6.772116e-06 -3.9539767e-07 0 1.402518e-06 0 0) (-1.9172544e-06 -5.991447e-07 0 0 0 0) (1.9172181e-06 -5.9914105e-07 0 0 0 0) (6.7720768e-06 -3.9539184e-07 0 -1.4025096e-06 0 0));
    }
    right
    {
        type            calculated;
        value           nonuniform List<symmTensor> 4((2.898388e-06 3.6207461e-09 0 -9.6623741e-06 0 0) (9.8611167e-07 5.4163898e-09 0 -3.2874028e-06 0 0) (-9.8610785e-07 5.4163491e-09 0 3.2873901e-06 0 0) (-2.8983892e-06 3.6207011e-09 0 9.6623783e-06 0 0));
    }
    top
    {
        type            calculated;
        value           nonuniform List<symmTensor> 
40
(
(6.7759622e-06 -2.5829966e-10 0 -2.0326888e-06 0 0)
(7.863362e-06 -4.9502229e-10 0 -2.3588824e-06 0 0)
(7.5400804e-06 -7.9001445e-10 0 -2.2618944e-06 0 0)
(7.086794e-06 -1.0997554e-09 0 -2.1259085e-06 0 0)
(6.5970712e-06 -1.4089573e-09 0 -1.9789929e-06 0 0)
(6.1147857e-06 -1.7147558e-09 0 -1.8343089e-06 0 0)
(5.6460075e-06 -2.0160476e-09 0 -1.6936776e-06 0 0)
(5.1917404e-06 -2.3120256e-09 0 -1.5573998e-06 0 0)
(4.7520517e-06 -2.6019165e-09 0 -1.4254959e-06 0 0)
(4.3269231e-06 -2.8849612e-09 0 -1.2979603e-06 0 0)
(3.9163342e-06 -3.1604169e-09 0 -1.174787e-06 0 0)
(3.5202658e-06 -3.4275603e-09 0 -1.0559701e-06 0 0)
(3.1386984e-06 -3.6856897e-09 0 -9.4150377e-07 0 0)
(2.7716111e-06 -3.9341271e-09 0 -8.3138173e-07 0 0)
(2.4189813e-06 -4.1722199e-09 0 -7.2559725e-07 0 0)
(2.0807852e-06 -4.3993423e-09 0 -6.2414313e-07 0 0)
(1.7569977e-06 -4.6148978e-09 0 -5.2701182e-07 0 0)
(1.4475921e-06 -4.8183198e-09 0 -4.3419532e-07 0 0)
(1.1525407e-06 -5.0090739e-09 0 -3.4568529e-07 0 0)
(8.7181445e-07 -5.1866588e-09 0 -2.6147303e-07 0 0)
(6.0538344e-07 -5.3506078e-09 0 -1.8154951e-07 0 0)
(3.5321656e-07 -5.5004902e-09 0 -1.059054e-07 0 0)
(1.1528182e-07 -5.6359118e-09 0 -3.4531091e-08 0 0)
(-1.0845359e-07 -5.7565169e-09 0 3.258328e-08 0 0)
(-3.1802331e-07 -5.8619879e-09 0 9.5447819e-08 0 0)
(-5.1346164e-07 -5.9520472e-09 0 1.5407283e-07 0 0)
(-6.9480375e-07 -6.0264564e-09 0 2.0846889e-07 0 0)
(-8.620863e-07 -6.0850183e-09 0 2.5864701e-07 0 0)
(-1.0153479e-06 -6.1275816e-09 0 3.046188e-07 0 0)
(-1.1546279e-06 -6.1540471e-09 0 3.4639605e-07 0 0)
(-1.2799609e-06 -6.1643684e-09 0 3.8398921e-07 0 0)
(-1.3913682e-06 -6.1585373e-09 0 4.1740464e-07 0 0)
(-1.4888424e-06 -6.1365664e-09 0 4.4664017e-07 0 0)
(-1.5723563e-06 -6.0985069e-09 0 4.7168763e-07 0 0)
(-1.6424995e-06 -6.0445027e-09 0 4.9272388e-07 0 0)
(-1.7056944e-06 -5.9744819e-09 0 5.1167553e-07 0 0)
(-1.8167106e-06 -5.884935e-09 0 5.4497156e-07 0 0)
(-2.2302758e-06 -5.7411493e-09 0 6.6902174e-07 0 0)
(-4.7876125e-06 -5.3821214e-09 0 1.4361306e-06 0 0)
(-9.8038218e-06 -3.5854686e-09 0 2.9408181e-06 0 0)
)
;
    }
    bottom
    {
        type            calculated;
        value           nonuniform List<symmTensor> 
40
(
(-6.7759921e-06 -2.5827161e-10 0 2.0326978e-06 0 0)
(-7.8633977e-06 -4.950114e-10 0 2.3588931e-06 0 0)
(-7.5401186e-06 -7.9001157e-10 0 2.2619059e-06 0 0)
(-7.0868337e-06 -1.0997547e-09 0 2.1259204e-06 0 0)
(-6.5971116e-06 -1.4089572e-09 0 1.9790051e-06 0 0)
(-6.1148263e-06 -1.7147558e-09 0 1.8343212e-06 0 0)
(-5.6460482e-06 -2.0160478e-09 0 1.6936898e-06 0 0)
(-5.1917809e-06 -2.3120259e-09 0 1.557412e-06 0 0)
(-4.7520919e-06 -2.6019171e-09 0 1.425508e-06 0 0)
(-4.3269628e-06 -2.884962e-09 0 1.2979723e-06 0 0)
(-3.9163732e-06 -3.160418e-09 0 1.1747987e-06 0 0)
(-3.520304e-06 -3.4275616e-09 0 1.0559815e-06 0 0)
(-3.1387356e-06 -3.6856913e-09 0 9.4151493e-07 0 0)
(-2.7716471e-06 -3.9341289e-09 0 8.3139256e-07 0 0)
(-2.419016e-06 -4.1722219e-09 0 7.2560769e-07 0 0)
(-2.0808186e-06 -4.3993446e-09 0 6.2415316e-07 0 0)
(-1.7570295e-06 -4.6149002e-09 0 5.2702138e-07 0 0)
(-1.4476223e-06 -4.8183224e-09 0 4.342044e-07 0 0)
(-1.1525692e-06 -5.0090767e-09 0 3.4569386e-07 0 0)
(-8.7184118e-07 -5.1866617e-09 0 2.6148106e-07 0 0)
(-6.0540832e-07 -5.3506108e-09 0 1.8155698e-07 0 0)
(-3.5323955e-07 -5.5004931e-09 0 1.0591231e-07 0 0)
(-1.1530292e-07 -5.6359148e-09 0 3.4537432e-08 0 0)
(1.0843435e-07 -5.7565197e-09 0 -3.2577497e-08 0 0)
(3.1800586e-07 -5.8619905e-09 0 -9.5442574e-08 0 0)
(5.134459e-07 -5.9520497e-09 0 -1.540681e-07 0 0)
(6.9478964e-07 -6.0264594e-09 0 -2.0846465e-07 0 0)
(8.620734e-07 -6.0850232e-09 0 -2.5864313e-07 0 0)
(1.0153353e-06 -6.1275882e-09 0 -3.04615e-07 0 0)
(1.1546143e-06 -6.1540524e-09 0 -3.4639197e-07 0 0)
(1.2799459e-06 -6.1643667e-09 0 -3.8398471e-07 0 0)
(1.3913531e-06 -6.158526e-09 0 -4.1740012e-07 0 0)
(1.4888289e-06 -6.1365532e-09 0 -4.4663609e-07 0 0)
(1.5723444e-06 -6.0985042e-09 0 -4.7168406e-07 0 0)
(1.6424874e-06 -6.0445156e-09 0 -4.9272026e-07 0 0)
(1.7056802e-06 -5.9745014e-09 0 -5.1167127e-07 0 0)
(1.816696e-06 -5.8849448e-09 0 -5.4496719e-07 0 0)
(2.2302656e-06 -5.7411463e-09 0 -6.6901868e-07 0 0)
(4.7876082e-06 -5.3821202e-09 0 -1.4361293e-06 0 0)
(9.8038191e-06 -3.5854827e-09 0 -2.9408172e-06 0 0)
)
;
    }
    frontAndBack
    {
        type            empty;
    }
}


// ************************************************************************* //
