/*--------------------------------*- C++ -*----------------------------------*\
| =========                 |                                                 |
| \\      /  F ield         | OpenFOAM: The Open Source CFD Toolbox           |
|  \\    /   O peration     | Version:  2512                                  |
|   \\  /    A nd           | Website:  www.openfoam.com                      |
|    \\/     M anipulation  |                                                 |
\*---------------------------------------------------------------------------*/
FoamFile
{
    version     2.0;
    format      ascii;
    arch        "LSB;label=32;scalar=64";
    class       volScalarField;
    location    "0.9";
    object      epsilonEq;
}
// * * * * * * * * * * * * * * * * * * * * * * * * * * * * * * * * * * * * * //

dimensions      [0 0 0 0 0 0 0];

internalField   nonuniform List<scalar> 
160
(
4.2994558e-06
4.6792493e-06
4.4772172e-06
4.197318e-06
3.906513e-06
3.6219287e-06
3.3457624e-06
3.0782535e-06
2.8193918e-06
2.5691666e-06
2.3275771e-06
2.0946287e-06
1.870333e-06
1.6547105e-06
1.4477959e-06
1.2496479e-06
1.0603675e-06
8.8013437e-07
7.0928953e-07
5.4854009e-07
3.995654e-07
2.6722894e-07
1.6932181e-07
1.5610764e-07
2.278012e-07
3.2413431e-07
4.2206216e-07
5.1556265e-07
6.0265235e-07
6.8252408e-07
7.5479659e-07
8.1926257e-07
8.7577148e-07
9.2412563e-07
9.6403637e-07
9.9635298e-07
1.0373004e-06
1.195245e-06
2.2504457e-06
6.368421e-06
1.8015053e-06
1.7909616e-06
1.6766559e-06
1.5682054e-06
1.4692975e-06
1.3755426e-06
1.2853738e-06
1.1984124e-06
1.1146081e-06
1.0339877e-06
9.5660051e-07
8.8250989e-07
8.1179447e-07
7.4455161e-07
6.809021e-07
6.2099584e-07
5.6501847e-07
5.1319809e-07
4.6581087e-07
4.23182e-07
3.8567671e-07
3.536729e-07
3.2750664e-07
3.0738828e-07
2.933038e-07
2.8493804e-07
2.8166302e-07
2.8260766e-07
2.8678016e-07
2.9319169e-07
3.0094358e-07
3.0926727e-07
3.1751379e-07
3.250446e-07
3.3076659e-07
3.3140396e-07
3.1780717e-07
3.0440269e-07
6.8139581e-07
1.9505517e-06
1.8014799e-06
1.790932e-06
1.6766248e-06
1.5681738e-06
1.4692656e-06
1.3755104e-06
1.2853416e-06
1.1983802e-06
1.1145761e-06
1.033956e-06
9.5656928e-07
8.8247925e-07
8.1176455e-07
7.4452255e-07
6.8087403e-07
6.2096889e-07
5.6499276e-07
5.1317377e-07
4.6578805e-07
4.2316081e-07
3.856573e-07
3.5365538e-07
3.274911e-07
3.0737477e-07
2.932923e-07
2.8492849e-07
2.8165535e-07
2.826017e-07
2.8677555e-07
2.9318808e-07
3.0094122e-07
3.0926745e-07
3.1751796e-07
3.2505227e-07
3.3077488e-07
3.314098e-07
3.1781064e-07
3.0441001e-07
6.8140706e-07
1.9505534e-06
4.2994292e-06
4.6792195e-06
4.4771858e-06
4.1972857e-06
3.9064802e-06
3.6218957e-06
3.3457293e-06
3.0782205e-06
2.819359e-06
2.5691341e-06
2.327545e-06
2.0945972e-06
1.8703021e-06
1.6546804e-06
1.4477666e-06
1.2496196e-06
1.0603401e-06
8.8010797e-07
7.0926408e-07
5.4851552e-07
3.9954159e-07
2.6720589e-07
1.693018e-07
1.5610018e-07
2.278037e-07
3.241401e-07
4.2206888e-07
5.1556955e-07
6.0265933e-07
6.8253148e-07
7.5480486e-07
8.1927185e-07
8.7578166e-07
9.2413613e-07
9.6404655e-07
9.9636236e-07
1.037308e-06
1.1952494e-06
2.2504461e-06
6.3684236e-06
)
;

boundaryField
{
    left
    {
        type            calculated;
        value           nonuniform List<scalar> 4(5.0682297e-06 1.4533926e-06 1.4533693e-06 5.0681999e-06);
    }
    right
    {
        type            calculated;
        value           nonuniform List<scalar> 4(7.5943685e-06 2.5838187e-06 2.5838087e-06 7.5943718e-06);
    }
    top
    {
        type            calculated;
        value           nonuniform List<scalar> 
40
(
5.3257825e-06
6.1804543e-06
5.9263572e-06
5.5700794e-06
5.1851637e-06
4.8060937e-06
4.4376407e-06
4.0805933e-06
3.7350047e-06
3.4008603e-06
3.0781442e-06
2.7668414e-06
2.4669364e-06
2.1784129e-06
1.9012534e-06
1.6354391e-06
1.3809505e-06
1.137767e-06
9.0586727e-07
6.8522997e-07
4.7583484e-07
2.7766982e-07
9.0819462e-08
8.5523324e-08
2.5007273e-07
4.0364895e-07
5.4616459e-07
6.7763582e-07
7.9808959e-07
9.0755543e-07
1.00606e-06
1.0936198e-06
1.1702287e-06
1.2358652e-06
1.2909927e-06
1.3406589e-06
1.4279108e-06
1.7529559e-06
3.7629438e-06
7.7055428e-06
)
;
    }
    bottom
    {
        type            calculated;
        value           nonuniform List<scalar> 
40
(
5.3258061e-06
6.1804824e-06
5.9263872e-06
5.5701106e-06
5.1851954e-06
4.8061257e-06
4.4376727e-06
4.0806252e-06
3.7350362e-06
3.4008915e-06
3.0781749e-06
2.7668714e-06
2.4669656e-06
2.1784413e-06
1.9012807e-06
1.6354653e-06
1.3809755e-06
1.1377907e-06
9.0588969e-07
6.8525099e-07
4.758544e-07
2.776879e-07
9.0836009e-08
8.5508239e-08
2.5005901e-07
4.0363658e-07
5.461535e-07
6.7762568e-07
7.9807965e-07
9.0754475e-07
1.0060483e-06
1.0936079e-06
1.170218e-06
1.2358558e-06
1.2909832e-06
1.3406478e-06
1.4278993e-06
1.7529479e-06
3.7629404e-06
7.7055406e-06
)
;
    }
    frontAndBack
    {
        type            empty;
    }
}


// ************************************************************************* //
