/*--------------------------------*- C++ -*----------------------------------*\
| =========                 |                                                 |
| \\      /  F ield         | OpenFOAM: The Open Source CFD Toolbox           |
|  \\    /   O peration     | Version:  2512                                  |
|   \\  /    A nd           | Website:  www.openfoam.com                      |
|    \\/     M anipulation  |                                                 |
\*---------------------------------------------------------------------------*/
FoamFile
{
    version     2.0;
    format      ascii;
    arch        "LSB;label=32;scalar=64";
    class       pointVectorField;
    location    "0.9";
    object      pointD;
}
// * * * * * * * * * * * * * * * * * * * * * * * * * * * * * * * * * * * * * //

dimensions      [0 1 0 0 0 0 0];

internalField   nonuniform List<vector> 
410
(
(-6.9664467e-08 -3.5062949e-08 0)
(-2.3906427e-07 -1.4443083e-07 0)
(-4.3564921e-07 -3.3828673e-07 0)
(-6.2415218e-07 -6.2395116e-07 0)
(-8.0132302e-07 -1.0001479e-06 0)
(-9.6625081e-07 -1.4612716e-06 0)
(-1.1191215e-06 -2.0012945e-06 0)
(-1.2602727e-06 -2.6142706e-06 0)
(-1.3900672e-06 -3.2944292e-06 0)
(-1.5088695e-06 -4.0361826e-06 0)
(-1.6170436e-06 -4.834126e-06 0)
(-1.7149529e-06 -5.6830362e-06 0)
(-1.8029605e-06 -6.5778721e-06 0)
(-1.8814289e-06 -7.5137736e-06 0)
(-1.9507201e-06 -8.486062e-06 0)
(-2.0111955e-06 -9.4902395e-06 0)
(-2.0632159e-06 -1.0521989e-05 0)
(-2.1071417e-06 -1.1577173e-05 0)
(-2.1433322e-06 -1.2651835e-05 0)
(-2.1721464e-06 -1.3742198e-05 0)
(-2.1939425e-06 -1.4844662e-05 0)
(-2.2090777e-06 -1.595581e-05 0)
(-2.2179087e-06 -1.70724e-05 0)
(-2.2207912e-06 -1.819137e-05 0)
(-2.2180804e-06 -1.9309835e-05 0)
(-2.2101302e-06 -2.0425087e-05 0)
(-2.1972941e-06 -2.1534596e-05 0)
(-2.1799244e-06 -2.2636007e-05 0)
(-2.1583725e-06 -2.3727141e-05 0)
(-2.1329891e-06 -2.4805998e-05 0)
(-2.1041238e-06 -2.5870747e-05 0)
(-2.0721251e-06 -2.6919737e-05 0)
(-2.0373413e-06 -2.7951489e-05 0)
(-2.0001206e-06 -2.8964698e-05 0)
(-1.960812e-06 -2.9958242e-05 0)
(-1.9197498e-06 -3.0931182e-05 0)
(-1.8771078e-06 -3.188272e-05 0)
(-1.8316904e-06 -3.2811646e-05 0)
(-1.7759337e-06 -3.3711487e-05 0)
(-1.6562435e-06 -3.4550899e-05 0)
(-1.4111481e-06 -3.5108446e-05 0)
(0 0 0)
(-1.0696218e-07 -1.0172877e-07 0)
(-2.0902359e-07 -2.9431823e-07 0)
(-3.0450732e-07 -5.8254243e-07 0)
(-3.9347167e-07 -9.6154764e-07 0)
(-4.7617333e-07 -1.4254401e-06 0)
(-5.5282208e-07 -1.968145e-06 0)
(-6.2360794e-07 -2.5837183e-06 0)
(-6.8871494e-07 -3.2663914e-06 0)
(-7.4832557e-07 -4.0105772e-06 0)
(-8.0262184e-07 -4.8108711e-06 0)
(-8.5178547e-07 -5.6620501e-06 0)
(-8.9599795e-07 -6.559073e-06 0)
(-9.3544052e-07 -7.4970802e-06 0)
(-9.7029415e-07 -8.4713929e-06 0)
(-1.0007395e-06 -9.4775134e-06 0)
(-1.0269571e-06 -1.0511125e-05 0)
(-1.0491269e-06 -1.156809e-05 0)
(-1.0674287e-06 -1.2644452e-05 0)
(-1.0820419e-06 -1.3736434e-05 0)
(-1.0931456e-06 -1.4840437e-05 0)
(-1.1009184e-06 -1.5953044e-05 0)
(-1.1055386e-06 -1.7071013e-05 0)
(-1.1071841e-06 -1.8191281e-05 0)
(-1.1060324e-06 -1.9310965e-05 0)
(-1.1022606e-06 -2.0427356e-05 0)
(-1.0960452e-06 -2.1537924e-05 0)
(-1.0875626e-06 -2.2640316e-05 0)
(-1.0769883e-06 -2.3732352e-05 0)
(-1.0644978e-06 -2.4812031e-05 0)
(-1.0502658e-06 -2.5877525e-05 0)
(-1.034467e-06 -2.692718e-05 0)
(-1.0172757e-06 -2.7959519e-05 0)
(-9.988672e-07 -2.8973235e-05 0)
(-9.7942003e-07 -2.9967198e-05 0)
(-9.5912805e-07 -3.094045e-05 0)
(-9.3824607e-07 -3.1892158e-05 0)
(-9.1725278e-07 -3.2821234e-05 0)
(-8.9717517e-07 -3.3724402e-05 0)
(-8.7940407e-07 -3.4583098e-05 0)
(-8.4698973e-07 -3.5350005e-05 0)
(0 0 0)
(-4.8816533e-13 -8.6474086e-08 0)
(-1.0198895e-12 -2.7922964e-07 0)
(-1.5609589e-12 -5.6855752e-07 0)
(-2.1036907e-12 -9.4860303e-07 0)
(-2.6469049e-12 -1.4134418e-06 0)
(-3.1900241e-12 -1.9570454e-06 0)
(-3.7319079e-12 -2.5734854e-06 0)
(-4.2707971e-12 -3.2569968e-06 0)
(-4.8047018e-12 -4.0019935e-06 0)
(-5.3314175e-12 -4.8030709e-06 0)
(-5.8488177e-12 -5.6550062e-06 0)
(-6.3547154e-12 -6.5527583e-06 0)
(-6.8471297e-12 -7.4914674e-06 0)
(-7.324073e-12 -8.4664549e-06 0)
(-7.7838222e-12 -9.4732232e-06 0)
(-8.224656e-12 -1.0507455e-05 0)
(-8.6451382e-12 -1.1565014e-05 0)
(-9.0438245e-12 -1.2641943e-05 0)
(-9.419568e-12 -1.3734465e-05 0)
(-9.7712243e-12 -1.4838981e-05 0)
(-1.0097995e-11 -1.5952074e-05 0)
(-1.039919e-11 -1.7070503e-05 0)
(-1.0674668e-11 -1.8191204e-05 0)
(-1.0924838e-11 -1.9311294e-05 0)
(-1.1151211e-11 -2.0428065e-05 0)
(-1.135641e-11 -2.1538987e-05 0)
(-1.1543796e-11 -2.2641705e-05 0)
(-1.171567e-11 -2.3734042e-05 0)
(-1.1873159e-11 -2.4813995e-05 0)
(-1.2018797e-11 -2.5879737e-05 0)
(-1.2162074e-11 -2.6929615e-05 0)
(-1.2319339e-11 -2.7962149e-05 0)
(-1.2503446e-11 -2.8976032e-05 0)
(-1.2706202e-11 -2.9970127e-05 0)
(-1.2897934e-11 -3.094344e-05 0)
(-1.3045631e-11 -3.1894991e-05 0)
(-1.3137354e-11 -3.2823235e-05 0)
(-1.3199245e-11 -3.3724159e-05 0)
(-1.3244892e-11 -3.4587942e-05 0)
(-1.3237451e-11 -3.543219e-05 0)
(0 0 0)
(1.0696121e-07 -1.0172851e-07 0)
(2.0902161e-07 -2.943179e-07 0)
(3.0450431e-07 -5.8254209e-07 0)
(3.9346762e-07 -9.6154729e-07 0)
(4.7616822e-07 -1.4254398e-06 0)
(5.5281592e-07 -1.9681446e-06 0)
(6.2360073e-07 -2.583718e-06 0)
(6.8870668e-07 -3.2663911e-06 0)
(7.4831628e-07 -4.0105769e-06 0)
(8.0261153e-07 -4.8108707e-06 0)
(8.5177415e-07 -5.6620497e-06 0)
(8.9598565e-07 -6.5590727e-06 0)
(9.3542726e-07 -7.4970799e-06 0)
(9.7027996e-07 -8.4713926e-06 0)
(1.0007245e-06 -9.4775131e-06 0)
(1.0269411e-06 -1.0511124e-05 0)
(1.0491101e-06 -1.1568089e-05 0)
(1.0674111e-06 -1.2644452e-05 0)
(1.0820236e-06 -1.3736434e-05 0)
(1.0931266e-06 -1.4840437e-05 0)
(1.1008988e-06 -1.5953044e-05 0)
(1.1055184e-06 -1.7071012e-05 0)
(1.1071634e-06 -1.8191281e-05 0)
(1.1060112e-06 -1.9310964e-05 0)
(1.1022389e-06 -2.0427356e-05 0)
(1.0960232e-06 -2.1537924e-05 0)
(1.0875401e-06 -2.2640315e-05 0)
(1.0769655e-06 -2.3732352e-05 0)
(1.0644747e-06 -2.4812031e-05 0)
(1.0502424e-06 -2.5877525e-05 0)
(1.0344433e-06 -2.692718e-05 0)
(1.0172517e-06 -2.7959519e-05 0)
(9.9884281e-07 -2.8973235e-05 0)
(9.7939525e-07 -2.9967198e-05 0)
(9.591029e-07 -3.094045e-05 0)
(9.382206e-07 -3.1892158e-05 0)
(9.1722707e-07 -3.2821234e-05 0)
(8.9714929e-07 -3.3724402e-05 0)
(8.7937806e-07 -3.4583098e-05 0)
(8.4696369e-07 -3.5350006e-05 0)
(6.9664146e-08 -3.5062739e-08 0)
(2.390632e-07 -1.4443032e-07 0)
(4.3564725e-07 -3.3828611e-07 0)
(6.2414926e-07 -6.2395051e-07 0)
(8.0131911e-07 -1.0001473e-06 0)
(9.6624589e-07 -1.461271e-06 0)
(1.1191155e-06 -2.0012939e-06 0)
(1.2602657e-06 -2.6142699e-06 0)
(1.3900592e-06 -3.2944285e-06 0)
(1.5088605e-06 -4.036182e-06 0)
(1.6170336e-06 -4.8341253e-06 0)
(1.714942e-06 -5.6830356e-06 0)
(1.8029486e-06 -6.5778714e-06 0)
(1.8814161e-06 -7.513773e-06 0)
(1.9507063e-06 -8.4860614e-06 0)
(2.0111809e-06 -9.490239e-06 0)
(2.0632005e-06 -1.0521988e-05 0)
(2.1071254e-06 -1.1577173e-05 0)
(2.1433152e-06 -1.2651835e-05 0)
(2.1721288e-06 -1.3742197e-05 0)
(2.1939241e-06 -1.4844662e-05 0)
(2.2090587e-06 -1.595581e-05 0)
(2.2178891e-06 -1.70724e-05 0)
(2.2207712e-06 -1.819137e-05 0)
(2.2180598e-06 -1.9309835e-05 0)
(2.2101092e-06 -2.0425087e-05 0)
(2.1972727e-06 -2.1534596e-05 0)
(2.1799026e-06 -2.2636006e-05 0)
(2.1583505e-06 -2.3727141e-05 0)
(2.1329668e-06 -2.4805997e-05 0)
(2.1041011e-06 -2.5870747e-05 0)
(2.072102e-06 -2.6919737e-05 0)
(2.0373178e-06 -2.7951488e-05 0)
(2.0000968e-06 -2.8964698e-05 0)
(1.9607879e-06 -2.9958241e-05 0)
(1.9197254e-06 -3.0931182e-05 0)
(1.877083e-06 -3.188272e-05 0)
(1.8316653e-06 -3.2811646e-05 0)
(1.7759084e-06 -3.3711487e-05 0)
(1.656218e-06 -3.4550899e-05 0)
(1.4111225e-06 -3.5108446e-05 0)
(-6.9664467e-08 -3.5062949e-08 0)
(-2.3906427e-07 -1.4443083e-07 0)
(-4.3564921e-07 -3.3828673e-07 0)
(-6.2415218e-07 -6.2395116e-07 0)
(-8.0132302e-07 -1.0001479e-06 0)
(-9.6625081e-07 -1.4612716e-06 0)
(-1.1191215e-06 -2.0012945e-06 0)
(-1.2602727e-06 -2.6142706e-06 0)
(-1.3900672e-06 -3.2944292e-06 0)
(-1.5088695e-06 -4.0361826e-06 0)
(-1.6170436e-06 -4.834126e-06 0)
(-1.7149529e-06 -5.6830362e-06 0)
(-1.8029605e-06 -6.5778721e-06 0)
(-1.8814289e-06 -7.5137736e-06 0)
(-1.9507201e-06 -8.486062e-06 0)
(-2.0111955e-06 -9.4902395e-06 0)
(-2.0632159e-06 -1.0521989e-05 0)
(-2.1071417e-06 -1.1577173e-05 0)
(-2.1433322e-06 -1.2651835e-05 0)
(-2.1721464e-06 -1.3742198e-05 0)
(-2.1939425e-06 -1.4844662e-05 0)
(-2.2090777e-06 -1.595581e-05 0)
(-2.2179087e-06 -1.70724e-05 0)
(-2.2207912e-06 -1.819137e-05 0)
(-2.2180804e-06 -1.9309835e-05 0)
(-2.2101302e-06 -2.0425087e-05 0)
(-2.1972941e-06 -2.1534596e-05 0)
(-2.1799244e-06 -2.2636007e-05 0)
(-2.1583725e-06 -2.3727141e-05 0)
(-2.1329891e-06 -2.4805998e-05 0)
(-2.1041238e-06 -2.5870747e-05 0)
(-2.0721251e-06 -2.6919737e-05 0)
(-2.0373413e-06 -2.7951489e-05 0)
(-2.0001206e-06 -2.8964698e-05 0)
(-1.960812e-06 -2.9958242e-05 0)
(-1.9197498e-06 -3.0931182e-05 0)
(-1.8771078e-06 -3.188272e-05 0)
(-1.8316904e-06 -3.2811646e-05 0)
(-1.7759337e-06 -3.3711487e-05 0)
(-1.6562435e-06 -3.4550899e-05 0)
(-1.4111481e-06 -3.5108446e-05 0)
(0 0 0)
(-1.0696218e-07 -1.0172877e-07 0)
(-2.0902359e-07 -2.9431823e-07 0)
(-3.0450732e-07 -5.8254243e-07 0)
(-3.9347167e-07 -9.6154764e-07 0)
(-4.7617333e-07 -1.4254401e-06 0)
(-5.5282208e-07 -1.968145e-06 0)
(-6.2360794e-07 -2.5837183e-06 0)
(-6.8871494e-07 -3.2663914e-06 0)
(-7.4832557e-07 -4.0105772e-06 0)
(-8.0262184e-07 -4.8108711e-06 0)
(-8.5178547e-07 -5.6620501e-06 0)
(-8.9599795e-07 -6.559073e-06 0)
(-9.3544052e-07 -7.4970802e-06 0)
(-9.7029415e-07 -8.4713929e-06 0)
(-1.0007395e-06 -9.4775134e-06 0)
(-1.0269571e-06 -1.0511125e-05 0)
(-1.0491269e-06 -1.156809e-05 0)
(-1.0674287e-06 -1.2644452e-05 0)
(-1.0820419e-06 -1.3736434e-05 0)
(-1.0931456e-06 -1.4840437e-05 0)
(-1.1009184e-06 -1.5953044e-05 0)
(-1.1055386e-06 -1.7071013e-05 0)
(-1.1071841e-06 -1.8191281e-05 0)
(-1.1060324e-06 -1.9310965e-05 0)
(-1.1022606e-06 -2.0427356e-05 0)
(-1.0960452e-06 -2.1537924e-05 0)
(-1.0875626e-06 -2.2640316e-05 0)
(-1.0769883e-06 -2.3732352e-05 0)
(-1.0644978e-06 -2.4812031e-05 0)
(-1.0502658e-06 -2.5877525e-05 0)
(-1.034467e-06 -2.692718e-05 0)
(-1.0172757e-06 -2.7959519e-05 0)
(-9.988672e-07 -2.8973235e-05 0)
(-9.7942003e-07 -2.9967198e-05 0)
(-9.5912805e-07 -3.094045e-05 0)
(-9.3824607e-07 -3.1892158e-05 0)
(-9.1725278e-07 -3.2821234e-05 0)
(-8.9717517e-07 -3.3724402e-05 0)
(-8.7940407e-07 -3.4583098e-05 0)
(-8.4698973e-07 -3.5350005e-05 0)
(0 0 0)
(-4.8816533e-13 -8.6474086e-08 0)
(-1.0198895e-12 -2.7922964e-07 0)
(-1.5609589e-12 -5.6855752e-07 0)
(-2.1036907e-12 -9.4860303e-07 0)
(-2.6469049e-12 -1.4134418e-06 0)
(-3.1900241e-12 -1.9570454e-06 0)
(-3.7319079e-12 -2.5734854e-06 0)
(-4.2707971e-12 -3.2569968e-06 0)
(-4.8047018e-12 -4.0019935e-06 0)
(-5.3314175e-12 -4.8030709e-06 0)
(-5.8488177e-12 -5.6550062e-06 0)
(-6.3547154e-12 -6.5527583e-06 0)
(-6.8471297e-12 -7.4914674e-06 0)
(-7.324073e-12 -8.4664549e-06 0)
(-7.7838222e-12 -9.4732232e-06 0)
(-8.224656e-12 -1.0507455e-05 0)
(-8.6451382e-12 -1.1565014e-05 0)
(-9.0438245e-12 -1.2641943e-05 0)
(-9.419568e-12 -1.3734465e-05 0)
(-9.7712243e-12 -1.4838981e-05 0)
(-1.0097995e-11 -1.5952074e-05 0)
(-1.039919e-11 -1.7070503e-05 0)
(-1.0674668e-11 -1.8191204e-05 0)
(-1.0924838e-11 -1.9311294e-05 0)
(-1.1151211e-11 -2.0428065e-05 0)
(-1.135641e-11 -2.1538987e-05 0)
(-1.1543796e-11 -2.2641705e-05 0)
(-1.171567e-11 -2.3734042e-05 0)
(-1.1873159e-11 -2.4813995e-05 0)
(-1.2018797e-11 -2.5879737e-05 0)
(-1.2162074e-11 -2.6929615e-05 0)
(-1.2319339e-11 -2.7962149e-05 0)
(-1.2503446e-11 -2.8976032e-05 0)
(-1.2706202e-11 -2.9970127e-05 0)
(-1.2897934e-11 -3.094344e-05 0)
(-1.3045631e-11 -3.1894991e-05 0)
(-1.3137354e-11 -3.2823235e-05 0)
(-1.3199245e-11 -3.3724159e-05 0)
(-1.3244892e-11 -3.4587942e-05 0)
(-1.3237451e-11 -3.543219e-05 0)
(0 0 0)
(1.0696121e-07 -1.0172851e-07 0)
(2.0902161e-07 -2.943179e-07 0)
(3.0450431e-07 -5.8254209e-07 0)
(3.9346762e-07 -9.6154729e-07 0)
(4.7616822e-07 -1.4254398e-06 0)
(5.5281592e-07 -1.9681446e-06 0)
(6.2360073e-07 -2.583718e-06 0)
(6.8870668e-07 -3.2663911e-06 0)
(7.4831628e-07 -4.0105769e-06 0)
(8.0261153e-07 -4.8108707e-06 0)
(8.5177415e-07 -5.6620497e-06 0)
(8.9598565e-07 -6.5590727e-06 0)
(9.3542726e-07 -7.4970799e-06 0)
(9.7027996e-07 -8.4713926e-06 0)
(1.0007245e-06 -9.4775131e-06 0)
(1.0269411e-06 -1.0511124e-05 0)
(1.0491101e-06 -1.1568089e-05 0)
(1.0674111e-06 -1.2644452e-05 0)
(1.0820236e-06 -1.3736434e-05 0)
(1.0931266e-06 -1.4840437e-05 0)
(1.1008988e-06 -1.5953044e-05 0)
(1.1055184e-06 -1.7071012e-05 0)
(1.1071634e-06 -1.8191281e-05 0)
(1.1060112e-06 -1.9310964e-05 0)
(1.1022389e-06 -2.0427356e-05 0)
(1.0960232e-06 -2.1537924e-05 0)
(1.0875401e-06 -2.2640315e-05 0)
(1.0769655e-06 -2.3732352e-05 0)
(1.0644747e-06 -2.4812031e-05 0)
(1.0502424e-06 -2.5877525e-05 0)
(1.0344433e-06 -2.692718e-05 0)
(1.0172517e-06 -2.7959519e-05 0)
(9.9884281e-07 -2.8973235e-05 0)
(9.7939525e-07 -2.9967198e-05 0)
(9.591029e-07 -3.094045e-05 0)
(9.382206e-07 -3.1892158e-05 0)
(9.1722707e-07 -3.2821234e-05 0)
(8.9714929e-07 -3.3724402e-05 0)
(8.7937806e-07 -3.4583098e-05 0)
(8.4696369e-07 -3.5350006e-05 0)
(6.9664146e-08 -3.5062739e-08 0)
(2.390632e-07 -1.4443032e-07 0)
(4.3564725e-07 -3.3828611e-07 0)
(6.2414926e-07 -6.2395051e-07 0)
(8.0131911e-07 -1.0001473e-06 0)
(9.6624589e-07 -1.461271e-06 0)
(1.1191155e-06 -2.0012939e-06 0)
(1.2602657e-06 -2.6142699e-06 0)
(1.3900592e-06 -3.2944285e-06 0)
(1.5088605e-06 -4.036182e-06 0)
(1.6170336e-06 -4.8341253e-06 0)
(1.714942e-06 -5.6830356e-06 0)
(1.8029486e-06 -6.5778714e-06 0)
(1.8814161e-06 -7.513773e-06 0)
(1.9507063e-06 -8.4860614e-06 0)
(2.0111809e-06 -9.490239e-06 0)
(2.0632005e-06 -1.0521988e-05 0)
(2.1071254e-06 -1.1577173e-05 0)
(2.1433152e-06 -1.2651835e-05 0)
(2.1721288e-06 -1.3742197e-05 0)
(2.1939241e-06 -1.4844662e-05 0)
(2.2090587e-06 -1.595581e-05 0)
(2.2178891e-06 -1.70724e-05 0)
(2.2207712e-06 -1.819137e-05 0)
(2.2180598e-06 -1.9309835e-05 0)
(2.2101092e-06 -2.0425087e-05 0)
(2.1972727e-06 -2.1534596e-05 0)
(2.1799026e-06 -2.2636006e-05 0)
(2.1583505e-06 -2.3727141e-05 0)
(2.1329668e-06 -2.4805997e-05 0)
(2.1041011e-06 -2.5870747e-05 0)
(2.072102e-06 -2.6919737e-05 0)
(2.0373178e-06 -2.7951488e-05 0)
(2.0000968e-06 -2.8964698e-05 0)
(1.9607879e-06 -2.9958241e-05 0)
(1.9197254e-06 -3.0931182e-05 0)
(1.877083e-06 -3.188272e-05 0)
(1.8316653e-06 -3.2811646e-05 0)
(1.7759084e-06 -3.3711487e-05 0)
(1.656218e-06 -3.4550899e-05 0)
(1.4111225e-06 -3.5108446e-05 0)
)
;

boundaryField
{
    left
    {
        type            calculated;
    }
    right
    {
        type            calculated;
    }
    top
    {
        type            calculated;
    }
    bottom
    {
        type            calculated;
    }
    frontAndBack
    {
        type            empty;
    }
}


// ************************************************************************* //
