/*--------------------------------*- C++ -*----------------------------------*\
| =========                 |                                                 |
| \\      /  F ield         | OpenFOAM: The Open Source CFD Toolbox           |
|  \\    /   O peration     | Version:  2512                                  |
|   \\  /    A nd           | Website:  www.openfoam.com                      |
|    \\/     M anipulation  |                                                 |
\*---------------------------------------------------------------------------*/
FoamFile
{
    version     2.0;
    format      ascii;
    arch        "LSB;label=32;scalar=64";
    class       surfaceSymmTensorField;
    location    "0.9";
    object      sigmaf;
}
// * * * * * * * * * * * * * * * * * * * * * * * * * * * * * * * * * * * * * //

dimensions      [1 -1 -2 0 0 0 0];

internalField   nonuniform List<symmTensor> 
276
(
(-1269643.6 -38247.186 0 -39276.589 0 -302058.51)
(-861895.52 -126286.15 0 -20660.195 0 -203666.7)
(-1183400.2 -42118.96 0 -3272.0341 0 -273847.44)
(-814746.65 -86316.941 0 5815.339 0 -186676.46)
(-1104401.5 -43944.25 0 -50.563542 0 -254873.54)
(-762738.44 -79120.759 0 3771.4552 0 -175146.23)
(-1028563.9 -43543.778 0 233.25527 0 -237307.07)
(-711251.01 -76007.579 0 1545.9442 0 -163778.09)
(-954982.02 -42497.982 0 157.60409 0 -220344.1)
(-661343.11 -73799.636 0 900.42197 0 -152409.85)
(-883576.22 -41303.09 0 123.43971 0 -203873.72)
(-612964.75 -71670.641 0 750.82351 0 -141280.14)
(-814348.73 -40079.493 0 113.29348 0 -187900.49)
(-566070.38 -69538.796 0 721.66978 0 -130465.09)
(-747303.83 -38851.098 0 110.99986 0 -172429.11)
(-520641.16 -67401.776 0 716.17222 0 -119982.69)
(-682441.91 -37622.039 0 110.70032 0 -157461.05)
(-476670.62 -65263.501 0 714.89767 0 -109835.93)
(-619761.35 -36393.151 0 110.92095 0 -142996.25)
(-434155.9 -63125.704 0 714.19944 0 -100025.01)
(-559259.92 -35164.486 0 111.27686 0 -129034.3)
(-393094.94 -60989.068 0 713.66753 0 -90549.525)
(-500934.8 -33936.22 0 111.70997 0 -115574.56)
(-353485.91 -58853.858 0 713.03689 0 -81409.126)
(-444783.09 -32708.273 0 112.17179 0 -102616.37)
(-315326.78 -56720.265 0 712.46235 0 -72603.305)
(-390801.48 -31480.804 0 112.67969 0 -90158.953)
(-278615.51 -54588.405 0 711.752 0 -64131.636)
(-338986.56 -30253.708 0 113.20681 0 -78201.544)
(-243349.79 -52458.42 0 711.09876 0 -55993.545)
(-289334.61 -29027.15 0 113.77352 0 -66743.27)
(-209527.32 -50330.407 0 710.30091 0 -48188.543)
(-241841.82 -27801.012 0 114.3572 0 -55783.26)
(-177145.51 -48204.492 0 709.57051 0 -40715.986)
(-196504.05 -26575.467 0 114.97598 0 -45320.555)
(-146201.78 -46080.765 0 708.69208 0 -33575.329)
(-153317.12 -25350.384 0 115.61014 0 -35354.195)
(-116693.3 -43959.337 0 707.89244 0 -26765.864)
(-112276.57 -24125.939 0 116.27483 0 -25883.144)
(-88617.25 -41840.287 0 706.9434 0 -20286.994)
(-73377.865 -22901.991 0 116.9532 0 -16906.364)
(-61970.563 -39723.71 0 706.08381 0 -14137.957)
(-36616.259 -21678.722 0 117.65727 0 -8422.7542)
(-36750.221 -37609.676 0 705.07408 0 -8318.1109)
(-1986.9365 -20455.984 0 118.37312 0 -431.20693)
(-12952.963 -35498.269 0 704.16244 0 -2826.6464)
(30515.109 -19233.964 0 119.10982 0 7069.4352)
(9424.407 -33389.553 0 703.09993 0 2337.117)
(60894.94 -18012.515 0 119.8576 0 14080.338)
(30385.316 -31283.607 0 702.13943 0 7174.0282)
(89157.798 -16791.838 0 120.62207 0 20602.712)
(49933.118 -29180.507 0 701.02894 0 11684.803)
(115309.02 -15571.844 0 121.40613 0 26637.791)
(68071.39 -27080.371 0 700.00521 0 15870.322)
(139354.18 -14352.795 0 122.22968 0 32186.864)
(84803.665 -24983.35 0 698.86955 0 19731.354)
(161298.99 -13134.719 0 123.20508 0 37251.277)
(100133.62 -22889.616 0 697.84699 0 23268.8)
(181149.35 -11917.764 0 124.70277 0 41832.474)
(114064.71 -20799.259 0 697.075 0 26483.489)
(198911.39 -10702.154 0 127.95479 0 45932.156)
(126599.79 -18712.577 0 697.20083 0 29376.228)
(214593.28 -9489.9442 0 137.46828 0 49553.25)
(137740 -16631.47 0 699.85377 0 31947.659)
(228210.87 -8290.6039 0 170.34088 0 52703.357)
(147481.91 -14563.885 0 711.89606 0 34198.571)
(239806.35 -7148.9159 0 290.19682 0 55406.896)
(155807.56 -12535.519 0 767.2913 0 36132.659)
(249489.63 -6286.9931 0 704.49683 0 57737.105)
(162648.94 -10614.909 0 1043.6904 0 37775.223)
(257492.21 -6776.5721 0 1746.9345 0 59824.418)
(167773.37 -8922.8123 0 2391.7451 0 39268.872)
(263688.84 -13282.654 0 2401.6668 0 61405.501)
(170467.9 -7102.5384 0 8405.4092 0 41278.455)
(263941.38 -40948.365 0 -24136.953 0 55339.483)
(169488.53 -1140.7662 0 29558.756 0 45933.99)
(217404.66 -117892.12 0 -192377.25 0 5775.5555)
(165803.05 45674.008 0 78780.853 0 56442.439)
(224286.99 216613.47 0 -116759.14 0 24814.12)
(-429059.23 -110859.6 0 -6680.317 0 -100555.28)
(-4.0510151 -118594.4 0 -0.48564136 0 -1.0469207)
(-398261.54 -103069.26 0 1230.2986 0 -91622.595)
(-4.2504656 -117113.55 0 0.011092596 0 -0.97831684)
(-369758.46 -97322.887 0 951.73906 0 -85109.244)
(-4.2826552 -107623.58 0 0.15299933 0 -0.9529975)
(-343657.09 -93802.278 0 459.74395 0 -79199.389)
(-4.2963832 -102108.83 0 0.15157171 0 -0.95649495)
(-318899.73 -90927.795 0 316.69956 0 -73519.161)
(-4.2984712 -98556.8 0 0.15747484 0 -0.95561455)
(-295037.08 -88203.661 0 285.34912 0 -68019.63)
(-4.3043598 -95533.056 0 0.13531265 0 -0.96208779)
(-271944.82 -85509.687 0 280.09106 0 -62691.861)
(-4.2905381 -92630.704 0 0.14844018 0 -0.95586875)
(-249591.54 -82822.309 0 279.39843 0 -57533.57)
(-4.2715233 -89754.668 0 0.13196743 0 -0.95528212)
(-227968.95 -80137.541 0 279.27965 0 -52543.77)
(-4.2255469 -86885.577 0 0.15230462 0 -0.93997898)
(-207074.39 -77454.871 0 279.15571 0 -47721.978)
(-4.1726688 -84019.701 0 0.13685563 0 -0.93134151)
(-186906.41 -74774.364 0 279.00123 0 -43067.863)
(-4.091161 -81156.389 0 0.16013311 0 -0.90716029)
(-167463.93 -72096.164 0 278.81637 0 -38581.18)
(-4.00471 -78295.619 0 0.14157228 0 -0.89149332)
(-148745.86 -69420.447 0 278.6178 0 -34261.672)
(-3.8900032 -75437.52 0 0.1643724 0 -0.85976096)
(-130751.14 -66747.377 0 278.39838 0 -30109.095)
(-3.7734084 -72582.265 0 0.14046022 0 -0.83837266)
(-113478.57 -64077.129 0 278.16823 0 -26123.171)
(-3.6295552 -69730.037 0 0.16146021 0 -0.80032961)
(-96926.972 -61409.859 0 277.92001 0 -22303.627)
(-3.4870064 -66881.017 0 0.13221409 0 -0.77418284)
(-81095.011 -58745.731 0 277.66219 0 -18650.157)
(-3.3183566 -64035.38 0 0.15166893 0 -0.73077408)
(-65981.371 -56084.884 0 277.38887 0 -15162.457)
(-3.1540411 -61193.294 0 0.11816429 0 -0.70058695)
(-51584.612 -53427.462 0 277.10719 0 -11840.193)
(-2.9649068 -58354.915 0 0.13680316 0 -0.6526393)
(-37903.29 -50773.589 0 276.81278 0 -8683.0333)
(-2.7831034 -55520.392 0 0.10049088 0 -0.61906442)
(-24935.866 -48123.39 0 276.51128 0 -5690.6202)
(-2.5783381 -52689.862 0 0.11941733 0 -0.56744326)
(-12680.788 -45476.971 0 276.19955 0 -2862.5973)
(-2.3849362 -49863.452 0 0.082087183 0 -0.53142669)
(-1136.4314 -42834.444 0 275.88157 0 -198.58841)
(-2.1730847 -47041.283 0 0.10246339 0 -0.47783568)
(9698.8425 -40195.903 0 275.55484 0 2301.784)
(-1.9816331 -44223.468 0 0.065760898 0 -0.44212436)
(19826.729 -37561.456 0 275.22093 0 4638.9116)
(-1.7838225 -41410.118 0 0.090544474 0 -0.39075647)
(29248.939 -34931.216 0 274.86796 0 6813.1862)
(-1.6243786 -38601.349 0 0.05736174 0 -0.36161927)
(37967.211 -32305.321 0 274.48368 0 8825.0065)
(-1.4764065 -35797.291 0 0.075622894 0 -0.32325776)
(45983.25 -29683.925 0 274.01936 0 10674.754)
(-1.3775817 -32998.069 0 -0.0086507228 0 -0.31989979)
(53298.521 -27066.936 0 273.46082 0 12362.765)
(-1.3045999 -30203.611 0 -0.14895194 0 -0.33543503)
(59913.725 -24453.741 0 272.77729 0 13889.193)
(-1.2957344 -27413.227 0 -0.43542624 0 -0.39949861)
(65827.234 -21842.835 0 271.85318 0 15253.636)
(-1.339077 -24624.899 0 -0.64287282 0 -0.45737304)
(71030.629 -19231.334 0 270.54735 0 16454.118)
(-1.430087 -21833.681 0 -0.57323303 0 -0.46230462)
(75493.526 -16610.515 0 271.46546 0 17484.229)
(-1.4856528 -19025.588 0 -0.042640275 0 -0.35268302)
(79108.827 -13938.518 0 301.58881 0 18325.481)
(-1.4917254 -16149.604 0 0.43439842 0 -0.24399854)
(81484.249 -10995.437 0 522.72823 0 18924.687)
(-1.4048367 -12989.024 0 0.43006329 0 -0.22494771)
(81152.609 -6708.9575 0 1676.9166 0 19114.506)
(-1.2258817 -8589.8831 0 -0.14768801 0 -0.31697763)
(72964.073 3587.9484 0 5883.2625 0 18195.539)
(-0.95782949 1086.8782 0 -0.74681269 0 -0.39337896)
(41445.13 35034.315 0 14371.329 0 12880.721)
(-0.74653149 30375.901 0 -0.83800556 0 -0.3656624)
(-28993.761 115694.71 0 -47449.697 0 -17640.798)
(-0.51957945 116093.46 0 -0.51468473 0 -0.23867635)
(-0.13934609 187553.77 0 -0.66291962 0 -0.18513824)
(429050.71 -110859.36 0 6679.8085 0 100553.2)
(861887.55 -126285.47 0 20659.524 0 203664.71)
(398252.91 -103069.02 0 -1230.2611 0 91620.611)
(814738.56 -86316.535 0 -5815.3261 0 186674.59)
(369749.85 -97322.555 0 -951.56311 0 85107.297)
(762730.24 -79120.183 0 -3771.2917 0 175144.37)
(343648.45 -93801.812 0 -459.56114 0 79197.436)
(711242.72 -76006.774 0 -1545.7731 0 163776.22)
(318891.11 -90927.224 0 -316.51404 0 73517.213)
(661334.77 -73798.586 0 -900.25046 0 152407.97)
(295028.43 -88202.973 0 -285.17463 0 68017.675)
(612956.38 -71669.382 0 -750.65937 0 141278.24)
(271936.24 -85508.909 0 -279.90937 0 62689.921)
(566062.02 -69537.322 0 -721.50169 0 130463.2)
(249582.99 -82821.422 0 -279.22036 0 57531.638)
(520632.84 -67400.115 0 -716.00801 0 119980.81)
(227960.52 -80136.573 0 -279.08959 0 52541.87)
(476662.37 -65261.64 0 -714.72633 0 109834.07)
(207066.08 -77453.799 0 -278.96549 0 47720.103)
(434147.76 -63123.667 0 -714.03002 0 100023.17)
(186898.28 -74773.218 0 -278.79894 0 43066.035)
(393086.95 -60986.844 0 -713.48835 0 90547.723)
(167455.99 -72094.919 0 -278.61519 0 38579.394)
(353478.1 -58851.47 0 -712.86053 0 81407.363)
(148738.17 -69419.136 0 -278.40907 0 34259.945)
(315319.18 -56717.703 0 -712.27682 0 72601.593)
(130743.69 -66745.972 0 -278.19522 0 30107.423)
(278608.14 -54585.69 0 -711.5738 0 64129.976)
(113471.43 -64075.667 0 -277.9637 0 26121.57)
(243342.69 -52455.546 0 -710.9143 0 55991.948)
(96920.126 -61408.31 0 -277.72573 0 22302.092)
(209520.5 -50327.395 0 -710.1295 0 48187.01)
(81088.516 -58744.133 0 -277.47205 0 18648.702)
(177139.01 -48201.338 0 -709.39591 0 40714.526)
(65975.218 -56083.206 0 -277.21226 0 15161.078)
(146195.61 -46077.489 0 -708.53552 0 33573.941)
(51578.844 -53425.747 0 -276.9384 0 11838.901)
(116687.49 -43955.937 0 -707.73465 0 26764.559)
(37897.901 -50771.802 0 -276.65845 0 8681.8253)
(88611.802 -41836.781 0 -706.80682 0 20285.768)
(24930.888 -48121.575 0 -276.36583 0 5689.505)
(61965.501 -39720.1 0 -705.94588 0 14136.821)
(12676.211 -45475.094 0 -276.06701 0 2861.5717)
(36745.547 -37605.98 0 -704.95866 0 8317.0588)
(1132.2703 -42832.549 0 -275.75679 0 197.65695)
(12948.687 -35494.491 0 -704.04457 0 2825.6866)
(-9702.6145 -40193.954 0 -275.43837 0 -2302.6276)
(-9428.3011 -33385.707 0 -703.00592 0 -2337.9939)
(-19830.133 -37559.499 0 -275.10883 0 -4639.6711)
(-30388.839 -31279.698 0 -702.03807 0 -7174.8177)
(-29252.04 -34929.213 0 -274.77307 0 -6813.8799)
(-49936.315 -29176.548 0 -700.95459 0 -11685.524)
(-37970.071 -32303.329 0 -274.45913 0 -8825.6608)
(-68074.306 -27076.375 0 -699.93957 0 -15870.98)
(-45985.941 -29681.933 0 -274.21199 0 -10675.42)
(-84806.392 -24979.357 0 -698.94456 0 -19732.001)
(-53301.095 -27064.996 0 -274.01844 0 -12363.488)
(-100136.26 -22885.648 0 -698.21795 0 -23269.495)
(-59916.253 -24451.805 0 -273.68918 0 -13889.987)
(-114067.37 -20795.32 0 -697.82704 0 -26484.276)
(-65829.835 -21840.853 0 -272.75011 0 -15254.443)
(-126602.53 -18708.6 0 -698.10663 0 -29377.069)
(-71033.421 -19229.226 0 -270.84832 0 -16454.831)
(-137742.78 -16627.403 0 -700.29733 0 -31948.402)
(-75496.575 -16608.424 0 -270.99559 0 -17484.824)
(-147484.71 -14559.786 0 -711.49658 0 -34199.125)
(-79111.915 -13936.565 0 -300.89059 0 -18326.032)
(-155810.39 -12531.574 0 -766.41149 0 -36133.108)
(-81487.074 -10993.68 0 -522.68414 0 -18925.329)
(-162651.79 -10611.185 0 -1043.2396 0 -37775.776)
(-81154.78 -6707.2987 0 -1677.8562 0 -19115.224)
(-167776.15 -8919.2761 0 -2392.4615 0 -39269.679)
(-72965.514 3589.6239 0 -5884.58 0 -18196.176)
(-170470.3 -7099.0771 0 -8406.9233 0 -41279.359)
(-41446.373 35035.992 0 -14372.358 0 -12881.246)
(-169490.27 -1137.4295 0 -29559.876 0 -45934.648)
(28993.001 115696.09 0 47448.918 0 17640.443)
(-165804.15 45677.114 0 -78781.26 0 -56442.786)
(-224287.33 216615.57 0 116758.87 0 -24814.26)
(1269635.9 -38246.999 0 39276.309 0 302056.67)
(1183392.5 -42118.767 0 3272.0884 0 273845.67)
(1104393.5 -43943.936 0 50.678423 0 254871.74)
(1028555.9 -43543.314 0 -233.11982 0 237305.26)
(954973.92 -42497.413 0 -157.48046 0 220342.26)
(883568.12 -41302.4 0 -123.30946 0 203871.88)
(814340.62 -40078.717 0 -113.17431 0 187898.64)
(747295.79 -38850.209 0 -110.87222 0 172427.29)
(682433.93 -37621.073 0 -110.58147 0 157459.23)
(619753.52 -36392.076 0 -110.79277 0 142994.48)
(559252.21 -35163.342 0 -111.15642 0 129032.55)
(500927.3 -33934.972 0 -111.5813 0 115572.86)
(444775.78 -32706.965 0 -112.05155 0 102614.71)
(390794.43 -31479.396 0 -112.55397 0 90157.356)
(338979.76 -30252.248 0 -113.09103 0 78200.001)
(289328.12 -29025.597 0 -113.65545 0 66741.8)
(241835.62 -27799.418 0 -114.25038 0 55781.855)
(196498.2 -26573.786 0 -114.86965 0 45319.231)
(153311.61 -25348.672 0 -115.51551 0 35352.945)
(112271.43 -24124.148 0 -116.18244 0 25881.981)
(73373.094 -22900.181 0 -116.87181 0 16905.282)
(36611.88 -21676.841 0 -117.57873 0 8421.7619)
(1982.926 -20454.095 0 -118.30432 0 430.29731)
(-30518.742 -19232.01 0 -119.04315 0 -7070.2581)
(-60898.238 -18010.563 0 -119.80032 0 -14081.086)
(-89160.782 -16789.826 0 -120.57518 0 -20603.39)
(-115311.77 -15569.861 0 -121.40412 0 -26638.425)
(-139356.78 -14350.831 0 -122.33414 0 -32187.487)
(-161301.58 -13132.825 0 -123.47176 0 -37251.936)
(-181152.03 -11915.847 0 -125.08702 0 -41833.181)
(-198914.2 -10700.097 0 -128.26956 0 -45932.877)
(-214596.1 -9487.7115 0 -137.47577 0 -49553.902)
(-228213.78 -8288.4578 0 -170.0882 0 -52703.97)
(-239809.17 -7147.0425 0 -289.92421 0 -55407.483)
(-249492.54 -6285.4256 0 -704.62161 0 -57737.807)
(-257495.06 -6775.0221 0 -1747.5241 0 -59825.211)
(-263691.24 -13280.848 0 -2402.3646 0 -61406.217)
(-263942.91 -40946.522 0 24136.541 0 -55339.932)
(-217405.77 -117890.66 0 192376.96 0 -5775.8793)
)
;

boundaryField
{
    left
    {
        type            calculated;
        value           nonuniform List<symmTensor> 4((-1395903.4 -60830.411 0 -138267.44 0 -354039.43) (-421374.59 -92176.108 0 -126412.38 0 -126412.38) (421366.62 -92175.546 0 126409.99 0 126409.99) (1395895.4 -60829.513 0 138266.69 0 354037.4));
    }
    right
    {
        type            calculated;
        value           nonuniform List<symmTensor> 4((-71.265381 557.03786 0 -1932496.2 0 -445977.11) (-23.995264 833.29074 0 -657487.77 0 -151733.48) (23.996632 833.28447 0 657485.22 0 151732.9) (71.264933 557.03094 0 1932497 0 445977.3));
    }
    top
    {
        type            calculated;
        value           nonuniform List<symmTensor> 
40
(
(1355199 -39.73841 0 21.947795 0 312743.3)
(1572680.7 -76.157275 0 27.739121 0 362932.72)
(1508024.6 -121.54068 0 28.506772 0 348012.26)
(1417367.3 -169.19313 0 28.501975 0 327091.35)
(1319422.7 -216.76267 0 28.230432 0 304488.68)
(1222965.5 -263.80858 0 27.856938 0 282229.23)
(1129209.7 -310.16118 0 27.406456 0 260593.18)
(1038356.1 -355.69624 0 26.883761 0 239626.85)
(950418.23 -400.29484 0 26.290485 0 219333.35)
(865392.32 -443.84019 0 25.628164 0 199711.83)
(783274.31 -486.21799 0 24.898526 0 180761.36)
(704060.4 -527.31697 0 24.103482 0 162481.04)
(627746.66 -567.02919 0 23.24512 0 144869.98)
(554328.91 -605.25033 0 22.32569 0 127927.21)
(483802.66 -641.87998 0 21.347604 0 111651.69)
(416163.13 -676.8219 0 20.313428 0 96042.334)
(351405.3 -709.98428 0 19.225877 0 81097.967)
(289523.84 -741.27998 0 18.087808 0 66817.368)
(230513.2 -770.62676 0 16.902209 0 53199.255)
(174367.59 -797.94751 0 15.672196 0 40242.292)
(121081.01 -823.17044 0 14.401001 0 27945.094)
(70647.239 -846.22926 0 13.091963 0 16306.23)
(23059.889 -867.06336 0 11.748523 0 5324.2241)
(-21687.606 -885.61798 0 10.374213 0 -5002.4381)
(-63601.97 -901.84429 0 8.9726512 0 -14675.307)
(-102690.06 -915.69957 0 7.5475264 0 -23695.965)
(-138958.92 -927.14714 0 6.1026193 0 -32066.035)
(-172415.87 -936.15667 0 4.6418685 0 -39787.206)
(-203068.64 -942.70486 0 3.1694164 0 -46861.261)
(-230925.07 -946.77647 0 1.6894718 0 -53290.011)
(-255992.12 -948.36437 0 0.20588391 0 -59075.057)
(-278274.02 -947.46727 0 -1.2781858 0 -64217.377)
(-297769.31 -944.08714 0 -2.7598154 0 -68716.633)
(-314472.54 -938.23183 0 -4.2352072 0 -72571.563)
(-328501.6 -929.92349 0 -5.7034748 0 -75809.378)
(-341141.04 -919.15107 0 -7.205936 0 -78726.519)
(-363344.86 -905.37462 0 -9.1440991 0 -83850.923)
(-446059.19 -883.25374 0 -13.407393 0 -102939.83)
(-957532.59 -828.01868 0 -33.654174 0 -220976.83)
(-1960786 -551.61055 0 -72.194915 0 -452505.74)
)
;
    }
    bottom
    {
        type            calculated;
        value           nonuniform List<symmTensor> 
40
(
(-1355205 -39.734095 0 -21.944571 0 -312744.68)
(-1572687.9 -76.155601 0 -27.735281 0 -362934.37)
(-1508032.3 -121.54024 0 -28.502664 0 -348014.02)
(-1417375.3 -169.19302 0 -28.497703 0 -327093.18)
(-1319430.8 -216.76264 0 -28.226089 0 -304490.54)
(-1222973.6 -263.80858 0 -27.852566 0 -282231.11)
(-1129217.9 -310.1612 0 -27.40208 0 -260595.06)
(-1038364.2 -355.69629 0 -26.879402 0 -239628.72)
(-950426.26 -400.29493 0 -26.286162 0 -219335.2)
(-865400.25 -443.84031 0 -25.623896 0 -199713.66)
(-783282.11 -486.21815 0 -24.89433 0 -180763.15)
(-704068.03 -527.31717 0 -24.099377 0 -162482.8)
(-627754.09 -567.02943 0 -23.241122 0 -144871.69)
(-554336.11 -605.2506 0 -22.321814 0 -127928.87)
(-483809.6 -641.88029 0 -21.343865 0 -111653.3)
(-416169.8 -676.82224 0 -20.30984 0 -96043.872)
(-351411.66 -709.98465 0 -19.222452 0 -81099.435)
(-289529.88 -741.28038 0 -18.084556 0 -66818.762)
(-230518.9 -770.62718 0 -16.899142 0 -53200.57)
(-174372.94 -797.94795 0 -15.669321 0 -40243.525)
(-121085.98 -823.17089 0 -14.398324 0 -27946.242)
(-70651.837 -846.22971 0 -13.089489 0 -16307.291)
(-23064.109 -867.06381 0 -11.746253 0 -5325.1973)
(21683.757 -885.61841 0 -10.372143 0 5001.5505)
(63598.48 -901.8447 0 -8.9707735 0 14674.502)
(102686.92 -915.69996 0 -7.545833 0 23695.239)
(138956.1 -927.1476 0 -6.1011015 0 32065.384)
(172413.29 -936.15742 0 -4.6404801 0 39786.611)
(203066.11 -942.70587 0 -3.1680562 0 46860.678)
(230922.35 -946.7773 0 -1.6880114 0 53289.385)
(255989.13 -948.36411 0 -0.20427315 0 59074.366)
(278271.01 -947.46554 0 1.2798056 0 64216.683)
(297766.6 -944.0851 0 2.7612757 0 68716.007)
(314470.16 -938.23141 0 4.2364871 0 72571.015)
(328499.19 -929.92547 0 5.7047722 0 75808.822)
(341138.2 -919.15406 0 7.2074631 0 78725.864)
(363341.94 -905.37613 0 9.145666 0 83850.251)
(446057.15 -883.25328 0 13.408489 0 102939.36)
(957531.74 -828.01849 0 33.654633 0 220976.63)
(1960785.5 -551.61272 0 72.195211 0 452505.61)
)
;
    }
    frontAndBack
    {
        type            empty;
    }
}


// ************************************************************************* //
