/*--------------------------------*- C++ -*----------------------------------*\
| =========                 |                                                 |
| \\      /  F ield         | OpenFOAM: The Open Source CFD Toolbox           |
|  \\    /   O peration     | Version:  2512                                  |
|   \\  /    A nd           | Website:  www.openfoam.com                      |
|    \\/     M anipulation  |                                                 |
\*---------------------------------------------------------------------------*/
FoamFile
{
    version     2.0;
    format      ascii;
    arch        "LSB;label=32;scalar=64";
    class       volSymmTensorField;
    location    "0.9";
    object      sigma;
}
// * * * * * * * * * * * * * * * * * * * * * * * * * * * * * * * * * * * * * //

dimensions      [1 -1 -2 0 0 0 0];

internalField   nonuniform List<symmTensor> 
160
(
(-1024935.3 -14353.992 -1.9884149e-11 64686.208 9.9420747e-12 -174590.75)
(-1105264.2 -42642.549 7.9536597e-11 80326.326 -1.5907319e-10 -186352.34)
(-1048407 -42489.468 -5.5675618e-10 88097.471 -3.1814639e-10 -174601.72)
(-982504.9 -42624.277 6.3629278e-10 82554.266 3.1814639e-10 -163627.39)
(-914198.39 -41672.858 -1.5907319e-10 76759.374 -1.9088783e-09 -152261.64)
(-847346.17 -40539.84 -4.7721958e-10 71116.821 6.3629278e-10 -141132.61)
(-782430.78 -39361.959 0 65688.733 0 -130316.74)
(-719531.3 -38176.369 -3.1814639e-10 60442.646 6.3629278e-10 -119834.3)
(-658650.57 -36989.434 -6.3629278e-10 55368.235 1.2725856e-09 -109687.7)
(-599785.67 -35802.406 -3.1814639e-10 50462.526 0 -99876.936)
(-542933.85 -34615.55 3.1814639e-10 45724.717 -5.0903422e-09 -90401.66)
(-488092.46 -33428.954 1.2725856e-09 41154.472 -1.2725856e-09 -81261.453)
(-435258.81 -32242.661 -3.1814639e-10 36751.537 -7.6355133e-09 -72455.867)
(-384429.98 -31056.703 -1.2725856e-09 32515.665 -7.6355133e-09 -63984.421)
(-335602.87 -29871.103 -9.5443917e-10 28446.595 1.0180684e-08 -55846.596)
(-288774.2 -28685.888 0 24544.052 7.6355133e-09 -48041.845)
(-243940.46 -27501.077 0 20807.746 -3.8177567e-08 -40569.585)
(-201097.99 -26316.693 -6.3629278e-10 17237.37 1.0180684e-08 -33429.204)
(-160242.95 -25132.754 6.3629278e-10 13832.606 -1.5271027e-08 -26620.062)
(-121371.33 -23949.28 0 10593.12 0 -20141.492)
(-84478.975 -22766.284 1.9088783e-09 7518.5668 0 -13992.802)
(-49561.604 -21583.784 0 4608.5892 5.0903422e-09 -8173.2754)
(-16614.791 -20401.796 -6.3629278e-10 1862.8191 0 -2682.1767)
(14365.999 -19220.335 3.8177567e-09 -719.12239 -2.5451711e-08 2481.2502)
(43385.413 -18039.42 0 -3137.6228 0 7317.78)
(70448.199 -16859.078 -6.3629278e-10 -5393.0822 -2.0361369e-08 11828.203)
(95559.221 -15679.356 0 -7485.9077 -2.5451711e-08 16013.33)
(118723.49 -14500.336 1.9088783e-09 -9416.5136 5.0903422e-09 19873.996)
(139946.2 -13322.139 6.3629278e-10 -11185.275 0 23411.078)
(159232.57 -12144.826 6.3629278e-10 -12792.443 -2.0361369e-08 26625.478)
(176587.21 -10968.525 0 -14237.937 -1.0180684e-08 29518.049)
(192012.86 -9794.1098 1.2725856e-09 -15520.465 -3.0542053e-08 32089.527)
(205507.7 -8625.6607 1.9088783e-09 -16633.666 1.0180684e-08 34340.734)
(217061.93 -7479.4466 1.9088783e-09 -17549.953 -4.0722738e-08 36274.905)
(226698.44 -6427.9471 -6.3629278e-10 -18158.256 2.0361369e-08 37916.397)
(234859.38 -5788.2529 0 -18154.083 2.0361369e-08 39400.963)
(245997.68 -7235.289 3.1814639e-10 -16883.542 -1.0180684e-08 41657.117)
(280220.75 -15095.927 -6.3629278e-10 -22355.555 -1.0180684e-08 46884.58)
(504141.64 -65400.901 1.2725856e-09 -57630.841 -1.0180684e-08 81183.782)
(857173.62 25451.701 0 -839038.69 1.0180684e-08 3297.2598)
(-409738.32 -124986.4 -2.9826224e-11 -33684.926 1.9884149e-11 -80622.408)
(-377086.11 -106708.84 -1.7895734e-10 30314.556 -1.9884149e-10 -63049.373)
(-352180.87 -98498.081 -1.5907319e-10 31073.843 6.3629278e-10 -58383.095)
(-328274.72 -93962.119 -2.3860979e-10 28323.466 1.1135124e-09 -54536.592)
(-305245.67 -90909.219 -3.9768299e-10 25970.124 -1.9088783e-09 -50777.373)
(-282922.14 -88183.009 -5.5675618e-10 23992.261 -1.2725856e-09 -47078.159)
(-261280.27 -85523.418 -8.7490257e-10 22162.51 -6.3629278e-10 -43475.956)
(-240313.3 -82876.254 -3.9768299e-10 20410.051 -6.3629278e-10 -39982.41)
(-220019.26 -80232.448 -5.5675618e-10 18717.731 0 -36600.278)
(-200397.06 -77590.73 -7.9536597e-10 17082.099 -3.8177567e-09 -33329.992)
(-181445.82 -74951.055 -9.5443917e-10 15502.484 2.5451711e-09 -30171.515)
(-163164.67 -72313.553 -4.7721958e-10 13978.71 -1.3998441e-08 -27124.72)
(-145552.71 -69678.385 -4.7721958e-10 12510.683 -5.0903422e-09 -24189.46)
(-128608.98 -67045.72 -6.3629278e-10 11098.316 -1.0180684e-08 -21365.575)
(-112332.43 -64415.723 -4.7721958e-10 9741.5238 1.0180684e-08 -18652.892)
(-96721.974 -61788.556 -4.7721958e-10 8440.214 2.5451711e-09 -16051.229)
(-81776.448 -59164.374 -7.9536597e-10 7194.2914 -5.0903422e-09 -13560.392)
(-67494.631 -56543.325 -3.1814639e-10 6003.6555 1.0180684e-08 -11180.177)
(-53875.247 -53925.549 -4.7721958e-10 4868.2015 5.0903422e-09 -8910.3719)
(-40916.963 -51311.175 -9.5443917e-10 3787.8199 3.0542053e-08 -6750.7533)
(-28618.4 -48700.324 -1.5907319e-10 2762.3974 1.0180684e-08 -4701.0914)
(-16978.13 -46093.11 -1.2725856e-09 1791.8163 5.0903422e-09 -2761.1479)
(-5994.684 -43489.639 -4.7721958e-10 875.95554 1.5271027e-08 -930.67791)
(4333.4454 -40890.011 -1.4316588e-09 14.690595 -2.5451711e-08 790.57019)
(14007.801 -38294.325 -6.3629278e-10 -792.10632 2.5451711e-08 2402.8536)
(23029.961 -35702.689 -6.3629278e-10 -1544.5698 1.0180684e-08 3906.4347)
(31401.539 -33115.231 -1.7498051e-09 -2242.8386 -2.5451711e-08 5301.582)
(39124.198 -30532.097 -1.5907319e-09 -2887.0582 0 6588.5708)
(46199.613 -27953.331 -9.5443917e-10 -3477.3321 0 7767.6875)
(52629.391 -25378.607 -1.5907319e-10 -4013.6307 1.0180684e-08 8839.2292)
(58414.837 -22806.956 -6.3629278e-10 -4495.6018 2.0361369e-08 9803.4972)
(63556.549 -20236.575 -1.1135124e-09 -4921.8158 -2.0361369e-08 10660.861)
(68053.371 -17663.527 -3.1814639e-10 -5285.8993 0 11412.268)
(71899.257 -15071.691 -6.3629278e-10 -5555.8988 -3.0542053e-08 12062.429)
(75071.512 -12372.524 -1.1135124e-09 -5577.6838 1.0180684e-08 12635.242)
(77489.513 -9093.4155 -7.9536597e-10 -4682.0544 -1.0180684e-08 13237.72)
(78800.012 -2841.9129 -4.7721958e-10 -669.35977 0 14205.573)
(77881.724 15860.421 -6.3629278e-10 10693.808 1.0180684e-08 16104.642)
(66257.6 83189.387 -9.5443917e-10 -2581.7113 1.0180684e-08 11577.434)
(51723.562 177249.98 -9.5443917e-10 -315794.49 1.0180684e-08 -48012.895)
(409730.84 -124986 -9.9420747e-12 33684.227 -6.4623485e-11 80620.922)
(377078.41 -106708.63 3.9768299e-11 -30314.068 -1.5907319e-10 63048.062)
(352173.1 -98497.802 0 -31073.037 -7.9536597e-11 58381.829)
(328266.91 -93961.719 -1.193049e-10 -28322.599 6.3629278e-10 54535.329)
(305237.84 -90908.7 2.3860979e-10 -25969.257 -9.5443917e-10 50776.105)
(282914.29 -88182.378 -1.5907319e-10 -23991.4 6.3629278e-10 47076.889)
(261272.43 -85522.685 6.3629278e-10 -22161.654 -6.3629278e-10 43474.687)
(240305.51 -82875.421 1.5907319e-10 -20409.198 3.8177567e-09 39981.147)
(220011.54 -80231.52 -3.1814639e-10 -18716.881 -3.8177567e-09 36599.028)
(200389.44 -77589.71 0 -17081.253 0 33328.76)
(181438.33 -74949.945 -3.1814639e-10 -15501.645 -3.8177567e-09 30170.306)
(163157.35 -72312.357 0 -13977.881 0 27123.54)
(145545.59 -69677.107 0 -12509.868 -2.5451711e-09 24188.313)
(128602.08 -67044.362 0 -11097.521 -1.0180684e-08 21364.465)
(112325.78 -64414.289 3.1814639e-10 -9740.7527 1.0180684e-08 18651.823)
(96715.596 -61787.049 7.9536597e-10 -8439.4714 -5.0903422e-09 16050.204)
(81770.363 -59162.8 3.1814639e-10 -7193.5815 -7.6355133e-09 13559.415)
(67488.86 -56541.687 -4.7721958e-10 -6002.9818 5.0903422e-09 11179.251)
(53869.807 -53923.851 -1.5907319e-10 -4867.5669 0 8909.4982)
(40911.87 -51309.422 -4.7721958e-10 -3787.2266 5.0903422e-09 6749.9352)
(28613.666 -48698.522 0 -2761.8465 -5.0903422e-09 4700.3308)
(16973.764 -46091.263 3.1814639e-10 -1791.3084 5.0903422e-09 2760.4464)
(5990.6884 -43487.752 -6.3629278e-10 -875.4902 -5.0903422e-09 930.03603)
(-4337.0764 -40888.088 -4.7721958e-10 -14.265295 0 -791.15303)
(-14011.087 -38292.372 -1.5907319e-10 792.49537 -5.0903422e-09 -2403.3804)
(-23032.939 -35700.71 0 1544.9224 0 -3906.9121)
(-31404.264 -33113.234 1.5907319e-10 2243.1298 -1.0180684e-08 -5302.0245)
(-39126.73 -30530.103 1.5907319e-10 2887.1991 2.0361369e-08 -6589.0056)
(-46202.019 -27951.356 -1.5907319e-10 3477.1873 -2.0361369e-08 -7768.1512)
(-52631.74 -25376.647 1.5907319e-10 4013.1373 -1.0180684e-08 -8839.746)
(-58417.219 -22804.971 1.5907319e-10 4494.9452 1.0180684e-08 -9804.0497)
(-63559.052 -20234.529 -1.5907319e-10 4921.4568 -1.0180684e-08 -10661.381)
(-68056.061 -17661.462 -1.5907319e-10 5286.2045 4.0722738e-08 -11412.701)
(-71902.06 -15069.709 -3.1814639e-10 5556.6906 -5.0903422e-08 -12062.794)
(-75074.226 -12370.683 3.1814639e-10 5578.2636 0 -12635.629)
(-77491.885 -9091.6828 1.5907319e-10 4681.8107 1.0180684e-08 -13238.195)
(-78801.83 -2840.2001 -4.7721958e-10 668.40405 -2.0361369e-08 -14206.078)
(-77883.073 15862.121 -1.5907319e-10 -10694.832 2.0361369e-08 -16105.074)
(-66258.575 83190.939 -3.1814639e-10 2580.9273 0 -11577.754)
(-51723.971 177251.01 1.5907319e-10 315792.94 6.1084107e-08 48012.54)
(1024928.9 -14353.782 1.193049e-10 -64685.89 -9.9420747e-11 174589.64)
(1105257.1 -42642.379 5.5675618e-10 -80325.823 -2.3860979e-10 186351.15)
(1048399.6 -42489.213 1.5907319e-10 -88096.81 -2.3860979e-10 174600.51)
(982497.4 -42623.884 4.7721958e-10 -82553.569 -1.5907319e-10 163626.15)
(914190.81 -41672.34 1.1135124e-09 -76758.667 -9.5443917e-10 152260.39)
(847338.55 -40539.209 9.5443917e-10 -71116.11 6.3629278e-10 141131.35)
(782423.16 -39361.226 1.5907319e-09 -65688.022 1.2725856e-09 130315.48)
(719523.72 -38175.537 9.5443917e-10 -60441.938 -1.2725856e-09 119833.05)
(658643.05 -36988.506 -6.3629278e-10 -55367.531 5.0903422e-09 109686.46)
(599778.25 -35801.386 1.9088783e-09 -50461.829 0 99875.713)
(542926.55 -34614.441 9.5443917e-10 -45724.029 1.2725856e-09 90400.459)
(488085.33 -33427.758 1.2725856e-09 -41153.795 -1.2725856e-08 81260.278)
(435251.86 -32241.382 1.5907319e-09 -36750.875 7.6355133e-09 72454.724)
(384423.24 -31055.344 3.1814639e-10 -32515.021 -2.5451711e-09 63983.313)
(335596.38 -29869.669 2.2270247e-09 -28445.972 7.6355133e-09 55845.529)
(288767.97 -28684.381 6.3629278e-10 -24543.453 2.5451711e-09 48040.821)
(243934.52 -27499.503 6.3629278e-10 -20807.173 5.0903422e-09 40568.608)
(201092.35 -26315.055 6.3629278e-10 -17236.826 -5.0903422e-09 33428.277)
(160237.63 -25131.057 6.3629278e-10 -13832.092 -1.0180684e-08 26619.188)
(121366.34 -23947.527 6.3629278e-10 -10592.639 2.5451711e-08 20140.673)
(84474.337 -22764.481 3.1814639e-09 -7518.1191 1.0180684e-08 13992.04)
(49557.32 -21581.937 6.3629278e-10 -4608.1755 -2.0361369e-08 8172.5717)
(16610.864 -20399.909 2.5451711e-09 -1862.4393 -5.0903422e-09 2681.5318)
(-14369.575 -19218.412 1.2725856e-09 719.46928 1.5271027e-08 -2481.8374)
(-43388.654 -18037.467 6.3629278e-10 3137.9382 -2.0361369e-08 -7318.312)
(-70451.129 -16857.095 1.9088783e-09 5393.3659 1.0180684e-08 -11828.684)
(-95561.874 -15677.353 1.9088783e-09 7486.1497 -1.0180684e-08 -16013.768)
(-118725.94 -14498.343 -1.2725856e-09 9416.6754 3.0542053e-08 -19874.411)
(-139948.57 -13320.175 2.5451711e-09 11185.305 3.0542053e-08 -23411.503)
(-159235.02 -12142.89 2.5451711e-09 12792.337 1.0180684e-08 -26625.942)
(-176589.8 -10966.551 3.1814639e-09 14237.805 2.0361369e-08 -29518.545)
(-192015.51 -9792.0328 1.2725856e-09 15520.518 1.0180684e-08 -32089.998)
(-205510.27 -8623.5449 1.9088783e-09 16634.016 1.0180684e-08 -34341.137)
(-217064.39 -7477.4442 6.3629278e-10 17550.46 2.0361369e-08 -36275.26)
(-226700.9 -6426.1425 1.2725856e-09 18158.588 -1.0180684e-08 -37916.784)
(-234861.94 -5786.5861 1.5907319e-09 18153.99 0 -39401.446)
(-246000.06 -7233.588 2.2270247e-09 16883.15 -1.0180684e-08 -41657.619)
(-280222.44 -15094.166 6.3629278e-10 22355.213 2.0361369e-08 -46884.95)
(-504142.54 -65399.293 6.3629278e-10 57630.685 3.0542053e-08 -81183.973)
(-857173.93 25452.621 1.5907319e-09 839039.04 -4.0722738e-08 -3297.2523)
)
;

boundaryField
{
    left
    {
        type            calculated;
        value           nonuniform List<symmTensor> 4((-1277890.3 -60830.411 0 -20254.294 0 -236026.29) (-379237.13 -92176.108 0 -84274.919 0 -84274.919) (379229.96 -92175.546 0 84273.325 0 84273.325) (1277882.9 -60829.513 0 20254.228 0 236024.93));
    }
    right
    {
        type            calculated;
        value           nonuniform List<symmTensor> 4((148587.77 557.03786 0 -1783837.2 0 -297318.07) (50553.833 833.29074 0 -606909.94 0 -101155.66) (-50553.636 833.28447 0 606907.59 0 101155.26) (-148587.84 557.03094 0 1783837.9 0 297318.2));
    }
    top
    {
        type            calculated;
        value           nonuniform List<symmTensor> 
40
(
(1250951.2 -39.73841 0 -104225.82 0 208495.53)
(1451703.2 -76.157275 0 -120949.84 0 241955.15)
(1392020.5 -121.54068 0 -115975.58 0 232008.17)
(1308336.9 -169.19313 0 -109001.95 0 218060.9)
(1217926.5 -216.76267 0 -101468 0 202992.45)
(1128889.1 -263.80858 0 -94048.554 0 188152.82)
(1042345.3 -310.16118 0 -86836.989 0 173728.79)
(958480.53 -355.69624 0 -79848.734 0 159751.24)
(877307.11 -400.29484 0 -73084.826 0 146222.23)
(798821.71 -443.84019 0 -66544.983 0 133141.22)
(723020.52 -486.21799 0 -60228.887 0 120507.57)
(649900.05 -527.31697 0 -54136.243 0 108320.69)
(579456.67 -567.02919 0 -48266.748 0 96579.986)
(511686.51 -605.25033 0 -42620.077 0 85284.805)
(446585.42 -641.87998 0 -37195.883 0 74434.462)
(384149.02 -676.8219 0 -31993.798 0 64028.223)
(324372.64 -709.98428 0 -27013.43 0 54065.311)
(267251.38 -741.27998 0 -22254.368 0 44544.912)
(212780.12 -770.62676 0 -17716.183 0 35466.17)
(160953.5 -797.94751 0 -13398.425 0 26828.195)
(111765.98 -823.17044 0 -9300.6305 0 18630.063)
(65211.829 -846.22926 0 -5422.3181 0 10870.82)
(21285.148 -867.06336 0 -1762.9929 0 3549.4828)
(-20020.126 -885.61798 0 1677.8536 0 -3334.9587)
(-58710.201 -901.84429 0 4900.7417 0 -9783.5381)
(-94791.409 -915.69957 0 7906.2027 0 -15797.31)
(-128270.24 -927.14714 0 10694.781 0 -21377.356)
(-159153.47 -936.15667 0 13267.044 0 -26524.804)
(-187448.22 -942.70486 0 15623.59 0 -31240.841)
(-213161.73 -946.77647 0 17765.026 0 -35526.674)
(-236300.43 -948.36437 0 19691.892 0 -39383.371)
(-256868.23 -947.46727 0 21404.514 0 -42811.585)
(-274863.77 -944.08714 0 22902.784 0 -45811.088)
(-290282.02 -938.23183 0 24186.286 0 -48381.042)
(-303231.81 -929.92349 0 25264.089 0 -50539.585)
(-314898.87 -919.15107 0 26234.967 0 -52484.346)
(-335394.55 -905.37462 0 27941.164 0 -55900.616)
(-411745.91 -883.25374 0 34299.869 0 -68626.553)
(-883873.65 -828.01868 0 73625.288 0 -147317.88)
(-1809950.8 -551.61055 0 150763.05 0 -301670.49)
)
;
    }
    bottom
    {
        type            calculated;
        value           nonuniform List<symmTensor> 
40
(
(-1250956.8 -39.734095 0 104226.28 0 -208496.45)
(-1451709.7 -76.155601 0 120950.39 0 -241956.25)
(-1392027.6 -121.54024 0 115976.17 0 -232009.35)
(-1308344.2 -169.19302 0 109002.56 0 -218062.12)
(-1217933.9 -216.76264 0 101468.62 0 -202993.69)
(-1128896.6 -263.80858 0 94049.183 0 -188154.07)
(-1042352.8 -310.1612 0 86837.618 0 -173730.04)
(-958488.01 -355.69629 0 79849.361 0 -159752.48)
(-877314.53 -400.29493 0 73085.448 0 -146223.47)
(-798829.03 -443.84031 0 66545.597 0 -133142.44)
(-723027.72 -486.21815 0 60229.49 0 -120508.77)
(-649907.1 -527.31717 0 54136.834 0 -108321.87)
(-579463.53 -567.02943 0 48267.323 0 -96581.128)
(-511693.16 -605.2506 0 42620.635 0 -85285.913)
(-446591.84 -641.88029 0 37196.421 0 -74435.53)
(-384155.18 -676.82224 0 31994.314 0 -64029.248)
(-324378.52 -709.98465 0 27013.923 0 -54066.29)
(-267256.96 -741.28038 0 22254.836 0 -44545.841)
(-212785.38 -770.62718 0 17716.624 0 -35467.046)
(-160958.43 -797.94795 0 13398.839 0 -26829.016)
(-111770.57 -823.17089 0 9301.0156 0 -18630.828)
(-65216.073 -846.22971 0 5422.6741 0 -10871.527)
(-21289.043 -867.06381 0 1763.3195 0 -3550.1315)
(20016.574 -885.61841 0 -1677.5556 0 3334.367)
(58706.979 -901.8447 0 -4900.4715 0 9783.0014)
(94788.504 -915.69996 0 -7905.959 0 15796.826)
(128267.64 -927.1476 0 -10694.562 0 21376.923)
(159151.08 -936.15742 0 -13266.844 0 26524.407)
(187445.88 -942.70587 0 -15623.394 0 31240.452)
(213159.23 -946.7773 0 -17764.816 0 35526.256)
(236297.67 -948.36411 0 -19691.66 0 39382.911)
(256865.45 -947.46554 0 -21404.281 0 42811.122)
(274861.26 -944.0851 0 -22902.574 0 45810.671)
(290279.82 -938.23141 0 -24186.102 0 48380.676)
(303229.58 -929.92547 0 -25263.902 0 50539.215)
(314896.25 -919.15406 0 -26234.747 0 52483.91)
(335391.86 -905.37613 0 -27940.938 0 55900.168)
(411744.03 -883.25328 0 -34299.711 0 68626.24)
(883872.86 -828.01849 0 -73625.222 0 147317.75)
(1809950.3 -551.61272 0 -150763.01 0 301670.41)
)
;
    }
    frontAndBack
    {
        type            empty;
    }
}


// ************************************************************************* //
