/*--------------------------------*- C++ -*----------------------------------*\
| =========                 |                                                 |
| \\      /  F ield         | OpenFOAM: The Open Source CFD Toolbox           |
|  \\    /   O peration     | Version:  2512                                  |
|   \\  /    A nd           | Website:  www.openfoam.com                      |
|    \\/     M anipulation  |                                                 |
\*---------------------------------------------------------------------------*/
FoamFile
{
    version     2.0;
    format      ascii;
    arch        "LSB;label=32;scalar=64";
    class       volScalarField;
    location    "0.9";
    object      sigmaEq;
}
// * * * * * * * * * * * * * * * * * * * * * * * * * * * * * * * * * * * * * //

dimensions      [1 -1 -2 0 0 0 0];

internalField   nonuniform List<scalar> 
160
(
992182.1
1079826.8
1033204
968611.84
901503
835829.69
772099.01
710366.19
650628.87
592884.6
537133.17
483375.85
431615.3
381856.26
334106.74
288380.29
244700.18
203107.93
163682.2
126586.17
92207.401
61668.217
39074.265
36024.839
52569.509
74800.226
97398.96
118976
139073.62
157505.56
174183.83
189060.59
202101.11
213259.76
222469.93
229927.61
239377.02
275825.76
519333.63
1469635.6
415731.98
413298.84
386920.59
361893.56
339068.66
317432.9
296624.73
276556.71
257217.25
238612.55
220753.96
203656.13
187337.19
171819.6
157131.25
143306.73
130388.88
118430.33
107494.82
97657.383
89002.318
81616.824
75578.456
70935.758
67685.493
65754.933
64999.159
65217.151
66180.037
67659.62
69448.517
71369.37
73272.413
75010.292
76330.752
76477.836
73340.115
70246.774
157245.19
450127.31
415726.14
413292.01
386913.42
361886.25
339061.29
317425.48
296617.3
276549.28
257209.87
238605.24
220746.76
203649.06
187330.28
171812.9
157124.78
143300.51
130382.95
118424.72
107489.55
97652.495
88997.839
81612.781
75574.87
70932.639
67682.838
65752.729
64997.388
65215.777
66178.974
67658.787
69447.973
71369.41
73273.376
75012.062
76332.664
76479.186
73340.916
70248.463
157247.78
450127.72
992175.97
1079819.9
1033196.7
968604.39
901495.44
835822.09
772091.39
710358.58
650621.3
592877.1
537125.78
483368.58
431608.18
381849.32
334100
288373.76
244693.87
203101.84
163676.33
126580.51
92201.906
61662.897
39069.647
36023.118
52570.085
74801.562
97400.51
118977.59
139075.23
157507.26
174185.74
189062.74
202103.46
213262.18
222472.28
229929.78
239378.76
275826.78
519333.71
1469636.2
)
;

boundaryField
{
    left
    {
        type            calculated;
        value           nonuniform List<scalar> 4(1169591.5 335398.29 335392.92 1169584.6);
    }
    right
    {
        type            calculated;
        value           nonuniform List<scalar> 4(1752546.6 596265.86 596263.55 1752547.3);
    }
    top
    {
        type            calculated;
        value           nonuniform List<scalar> 
40
(
1229026.7
1426258.7
1367620.9
1285402.9
1196576.2
1109098.5
1024070.9
941675.38
861924.15
784813.92
710340.97
638501.85
569293.02
502710.68
438750.78
377409.03
318680.88
262561.61
209046.29
158129.99
109808.04
64077.652
20958.337
19736.152
57709.091
93149.758
126037.98
156377.5
184174.52
209435.87
232167.7
252373.79
270052.77
285199.66
297921.38
309382.83
329517.88
404528.28
868371.64
1778202.2
)
;
    }
    bottom
    {
        type            calculated;
        value           nonuniform List<scalar> 
40
(
1229032.2
1426265.2
1367627.8
1285410.1
1196583.6
1109105.9
1024078.3
941682.73
861931.44
784821.12
710348.04
638508.78
569299.76
502717.22
438757.09
377415.08
318686.66
262567.09
209051.47
158134.84
109812.55
64081.822
20962.156
19732.671
57705.926
93146.902
126035.42
156375.16
184172.23
209433.4
232164.98
252371.06
270050.31
285197.5
297919.19
309380.26
329515.23
404526.43
868370.86
1778201.7
)
;
    }
    frontAndBack
    {
        type            empty;
    }
}


// ************************************************************************* //
