/*--------------------------------*- C++ -*----------------------------------*\
| =========                 |                                                 |
| \\      /  F ield         | OpenFOAM: The Open Source CFD Toolbox           |
|  \\    /   O peration     | Version:  2512                                  |
|   \\  /    A nd           | Website:  www.openfoam.com                      |
|    \\/     M anipulation  |                                                 |
\*---------------------------------------------------------------------------*/
FoamFile
{
    version     2.0;
    format      ascii;
    arch        "LSB;label=32;scalar=64";
    class       volScalarField;
    location    "0.9";
    object      sigmaHyd;
}
// * * * * * * * * * * * * * * * * * * * * * * * * * * * * * * * * * * * * * //

dimensions      [1 -1 -2 0 0 0 0];

internalField   nonuniform List<scalar> 
160
(
-378279.95
-403763.4
-378303.74
-354526.01
-329900.22
-305787.32
-282352.93
-259640.99
-237656.68
-216400.03
-195870.26
-176066.48
-156987.71
-138632.91
-121000.96
-104090.66
-87900.767
-72429.942
-57676.801
-43639.9
-30317.737
-17708.763
-5811.3828
5376.0422
15855.19
25627.773
34695.548
43060.324
50724.002
57688.536
63955.774
69527.309
74404.923
78595.627
82152.194
85368.754
90257.086
101583.26
175898.19
7144.0628
-174681.88
-136606.97
-126496.71
-118162.62
-110017.64
-102002.68
-94197.905
-86628.554
-79300.603
-72214.984
-65371.616
-58770.227
-52410.497
-46292.079
-40414.6
-34777.663
-29380.85
-24223.718
-19305.806
-14626.632
-10185.698
-5982.4872
-2016.4688
1712.9021
5206.1828
8463.9418
11486.761
14275.237
16829.99
19151.663
21240.911
23098.531
24726.58
26135.262
27376.357
28681.726
30778.742
34893.391
25084.441
-104027.94
174678.66
136604.14
126493.96
118159.88
110014.89
101999.93
94195.155
86625.819
79297.894
72212.314
65368.997
58767.67
52408.012
46289.674
40412.283
34775.443
29378.732
24221.71
19303.913
14624.86
10184.05
5980.9673
2015.0781
-1714.1649
-5207.3242
-8464.9763
-11487.72
-14276.179
-16830.994
-19152.783
-21242.108
-23099.659
-24727.519
-26136.054
-27377.197
-28682.756
-30779.835
-34894.326
-25085.134
104027.17
378277.56
403760.82
378301.11
354523.33
329897.51
305784.6
282350.21
259638.28
237653.99
216397.38
195867.66
176063.94
156985.24
138630.51
120998.65
104088.45
87898.65
72427.933
57674.907
43638.125
30316.086
17707.239
5809.9857
-5377.3143
-15856.343
-25628.816
-34696.497
-43061.225
-50724.924
-57689.541
-63956.848
-69528.329
-74405.798
-78596.396
-82153.033
-85369.8
-90258.175
-101584.06
-175898.61
-7144.0467
)
;

boundaryField
{
    left
    {
        type            zeroGradient;
    }
    right
    {
        type            zeroGradient;
    }
    top
    {
        type            zeroGradient;
    }
    bottom
    {
        type            zeroGradient;
    }
    frontAndBack
    {
        type            empty;
    }
}


// ************************************************************************* //
