/*--------------------------------*- C++ -*----------------------------------*\
| =========                 |                                                 |
| \\      /  F ield         | OpenFOAM: The Open Source CFD Toolbox           |
|  \\    /   O peration     | Version:  2512                                  |
|   \\  /    A nd           | Website:  www.openfoam.com                      |
|    \\/     M anipulation  |                                                 |
\*---------------------------------------------------------------------------*/
FoamFile
{
    version     2.0;
    format      ascii;
    arch        "LSB;label=32;scalar=64";
    class       volScalarField;
    location    "0.8";
    object      epsilonEq;
}
// * * * * * * * * * * * * * * * * * * * * * * * * * * * * * * * * * * * * * //

dimensions      [0 0 0 0 0 0 0];

internalField   nonuniform List<scalar> 
160
(
4.2495378e-06
4.6202669e-06
4.4169943e-06
4.1373097e-06
3.8471274e-06
3.5633526e-06
3.2881533e-06
3.0217647e-06
2.7641747e-06
2.5153701e-06
2.2753476e-06
2.0441099e-06
1.8216663e-06
1.6080355e-06
1.4032519e-06
1.2073766e-06
1.0205184e-06
8.4287686e-07
6.7483959e-07
5.172324e-07
3.7207886e-07
2.4546428e-07
1.5976967e-07
1.6519615e-07
2.4295033e-07
3.3862288e-07
4.342734e-07
5.2500923e-07
6.0914335e-07
6.8597128e-07
7.5515671e-07
8.1651613e-07
8.6991459e-07
9.1516995e-07
9.5201299e-07
9.8128339e-07
1.0187839e-06
1.1699962e-06
2.1944243e-06
6.2008397e-06
1.7841042e-06
1.7721406e-06
1.6580932e-06
1.5499226e-06
1.45128e-06
1.3578196e-06
1.2679931e-06
1.1814266e-06
1.098071e-06
1.0179532e-06
9.411226e-07
8.6764273e-07
7.975925e-07
7.3106969e-07
6.6819566e-07
6.0912087e-07
5.5403124e-07
5.0315434e-07
4.5676374e-07
4.1517826e-07
3.7874994e-07
3.47833e-07
3.2272598e-07
3.0358752e-07
2.9034339e-07
2.826223e-07
2.7975873e-07
2.8087118e-07
2.8498264e-07
2.9113502e-07
2.9846638e-07
3.0624452e-07
3.1385456e-07
3.2069214e-07
3.257124e-07
3.2576787e-07
3.1214028e-07
2.9956976e-07
6.6709292e-07
1.9016652e-06
1.7840691e-06
1.7720997e-06
1.6580503e-06
1.5498788e-06
1.4512358e-06
1.3577751e-06
1.2679486e-06
1.1813822e-06
1.0980268e-06
1.0179094e-06
9.4107948e-07
8.6760044e-07
7.9755123e-07
7.3102964e-07
6.68157e-07
6.0908379e-07
5.5399592e-07
5.0312096e-07
4.567325e-07
4.1514934e-07
3.7872352e-07
3.4780924e-07
3.2270501e-07
3.0356937e-07
2.9032802e-07
2.8260962e-07
2.7974861e-07
2.8086338e-07
2.8497664e-07
2.9113035e-07
2.9846341e-07
3.0624505e-07
3.1386062e-07
3.2070302e-07
3.2572411e-07
3.2577617e-07
3.1214527e-07
2.9958e-07
6.6710852e-07
1.9016676e-06
4.249501e-06
4.6202257e-06
4.4169508e-06
4.137265e-06
3.8470821e-06
3.5633069e-06
3.2881075e-06
3.021719e-06
2.7641292e-06
2.5153251e-06
2.2753032e-06
2.0440663e-06
1.8216235e-06
1.6079938e-06
1.4032113e-06
1.2073373e-06
1.0204804e-06
8.4284019e-07
6.7480423e-07
5.1719823e-07
3.7204572e-07
2.4543243e-07
1.5974399e-07
1.6518928e-07
2.4295514e-07
3.3863141e-07
4.3428294e-07
5.2501891e-07
6.0915309e-07
6.8598156e-07
7.5516819e-07
8.1652901e-07
8.6992869e-07
9.151845e-07
9.520271e-07
9.812964e-07
1.0187944e-06
1.1700023e-06
2.1944248e-06
6.2008433e-06
)
;

boundaryField
{
    left
    {
        type            calculated;
        value           nonuniform List<scalar> 4(5.0116724e-06 1.4397497e-06 1.4397175e-06 5.0116311e-06);
    }
    right
    {
        type            calculated;
        value           nonuniform List<scalar> 4(7.3935957e-06 2.5162249e-06 2.516211e-06 7.3936002e-06);
    }
    top
    {
        type            calculated;
        value           nonuniform List<scalar> 
40
(
5.2639493e-06
6.1023053e-06
5.8460455e-06
5.4897813e-06
5.1056307e-06
4.7276131e-06
4.3604295e-06
4.004855e-06
3.6609381e-06
3.3286601e-06
3.0080001e-06
2.6989379e-06
2.401452e-06
2.1155199e-06
1.8411173e-06
1.5782185e-06
1.3267963e-06
1.0868225e-06
8.5826821e-07
6.4110481e-07
4.3530755e-07
2.4087456e-07
5.8190252e-08
1.1486115e-07
2.7541895e-07
4.2496029e-07
5.6339522e-07
6.9074513e-07
8.070466e-07
9.1234017e-07
1.0066629e-06
1.0900399e-06
1.1624733e-06
1.2239521e-06
1.2749421e-06
1.3203746e-06
1.4021647e-06
1.7151956e-06
3.6681357e-06
7.5021512e-06
)
;
    }
    bottom
    {
        type            calculated;
        value           nonuniform List<scalar> 
40
(
5.2639819e-06
6.1023442e-06
5.8460871e-06
5.4898245e-06
5.1056747e-06
4.7276574e-06
4.3604738e-06
4.0048991e-06
3.6609818e-06
3.3287033e-06
3.0080426e-06
2.6989794e-06
2.4014925e-06
2.1155592e-06
1.8411552e-06
1.5782548e-06
1.326831e-06
1.0868554e-06
8.5829927e-07
6.4113393e-07
4.3533464e-07
2.4089959e-07
5.821296e-08
1.1484026e-07
2.7539995e-07
4.2494315e-07
5.6337985e-07
6.9073107e-07
8.0703283e-07
9.1232538e-07
1.0066466e-06
1.0900235e-06
1.1624585e-06
1.2239391e-06
1.2749289e-06
1.3203591e-06
1.4021488e-06
1.7151845e-06
3.6681311e-06
7.5021482e-06
)
;
    }
    frontAndBack
    {
        type            empty;
    }
}


// ************************************************************************* //
