/*--------------------------------*- C++ -*----------------------------------*\
| =========                 |                                                 |
| \\      /  F ield         | OpenFOAM: The Open Source CFD Toolbox           |
|  \\    /   O peration     | Version:  2512                                  |
|   \\  /    A nd           | Website:  www.openfoam.com                      |
|    \\/     M anipulation  |                                                 |
\*---------------------------------------------------------------------------*/
FoamFile
{
    version     2.0;
    format      ascii;
    arch        "LSB;label=32;scalar=64";
    class       volSymmTensorField;
    location    "0.8";
    object      epsilon;
}
// * * * * * * * * * * * * * * * * * * * * * * * * * * * * * * * * * * * * * //

dimensions      [0 0 0 0 0 0 0];

internalField   nonuniform List<symmTensor> 
160
(
(-5.4623187e-06 -9.5857041e-08 -2.5849394e-22 1.5380943e-06 -6.4623485e-23 0)
(-5.8973065e-06 -2.7753455e-07 0 1.711358e-06 -1.0339758e-21 0)
(-5.6029214e-06 -2.7626866e-07 0 1.6844748e-06 2.0679515e-21 0)
(-5.2461451e-06 -2.7699163e-07 1.0339758e-21 1.5772006e-06 1.0339758e-21 0)
(-4.8768006e-06 -2.7075516e-07 -1.0339758e-21 1.4659003e-06 -4.1359031e-21 0)
(-4.5156096e-06 -2.6335792e-07 0 1.3571937e-06 0 0)
(-4.1651732e-06 -2.5567395e-07 4.1359031e-21 1.2519725e-06 0 0)
(-3.8258658e-06 -2.4794121e-07 -4.1359031e-21 1.1501583e-06 0 0)
(-3.4976868e-06 -2.4020046e-07 -2.0679515e-21 1.0516995e-06 0 0)
(-3.180613e-06 -2.3245977e-07 -2.0679515e-21 9.5657568e-07 -8.2718061e-21 0)
(-2.8746242e-06 -2.2472087e-07 -4.1359031e-21 8.6477805e-07 8.2718061e-21 0)
(-2.5797008e-06 -2.1698441e-07 0 7.7630019e-07 -1.6543612e-20 0)
(-2.2958226e-06 -2.092507e-07 2.0679515e-21 6.9113585e-07 1.6543612e-20 0)
(-2.0229678e-06 -2.0152002e-07 1.2407709e-20 6.0927847e-07 1.6543612e-20 0)
(-1.7611131e-06 -1.9379258e-07 -4.1359031e-21 5.3072106e-07 1.4889251e-19 0)
(-1.5102337e-06 -1.8606859e-07 8.2718061e-21 4.5545619e-07 3.3087225e-20 0)
(-1.2703035e-06 -1.7834825e-07 -8.2718061e-21 3.8347602e-07 -9.9261674e-20 0)
(-1.0412949e-06 -1.7063176e-07 4.1359031e-21 3.1477228e-07 0 0)
(-8.2317916e-07 -1.6291927e-07 -4.1359031e-21 2.4933632e-07 -1.323489e-19 0)
(-6.1592612e-07 -1.5521096e-07 4.1359031e-21 1.8715914e-07 6.6174449e-20 0)
(-4.1950465e-07 -1.4750697e-07 -4.1359031e-21 1.282314e-07 -6.6174449e-20 0)
(-2.3388257e-07 -1.3980744e-07 -8.2718061e-21 7.2543419e-08 9.9261674e-20 0)
(-5.9026695e-08 -1.3211251e-07 8.2718061e-21 2.0085265e-08 -3.3087225e-20 0)
(1.0509702e-07 -1.2442234e-07 0 -2.9153287e-08 -1.323489e-19 0)
(2.5852345e-07 -1.1673709e-07 4.1359031e-21 -7.5182703e-08 6.6174449e-20 0)
(4.0128823e-07 -1.0905697e-07 -1.2407709e-20 -1.1801371e-07 -3.3087225e-20 0)
(5.3342789e-07 -1.0138244e-07 -4.1359031e-21 -1.5765728e-07 -1.6543612e-19 0)
(6.5498003e-07 -9.3714144e-08 8.2718061e-21 -1.941247e-07 -6.6174449e-20 0)
(7.6598364e-07 -8.6053054e-08 0 -2.2742736e-07 -6.6174449e-20 0)
(8.6647779e-07 -7.8399343e-08 0 -2.5757596e-07 0 0)
(9.5649732e-07 -7.0753021e-08 -4.1359031e-21 -2.8457859e-07 0 0)
(1.0360646e-06 -6.3118571e-08 0 -3.0843461e-07 -1.323489e-19 0)
(1.1051711e-06 -5.5521668e-08 2.0679515e-21 -3.2911178e-07 6.6174449e-20 0)
(1.1637443e-06 -4.8066989e-08 4.1359031e-21 -3.4645927e-07 -1.323489e-19 0)
(1.211788e-06 -4.1215759e-08 6.2038546e-21 -3.5993248e-07 -1.323489e-19 0)
(1.2512569e-06 -3.6975234e-08 2.0679515e-21 -3.6846861e-07 -1.323489e-19 0)
(1.3044652e-06 -4.5940807e-08 2.0679515e-21 -3.7381211e-07 -6.6174449e-20 0)
(1.4847275e-06 -9.5481842e-08 -8.2718061e-21 -4.4057443e-07 0 0)
(2.6811249e-06 -4.135595e-07 0 -8.7989985e-07 -1.9852335e-19 0)
(5.4042453e-06 1.6173092e-07 2.0679515e-21 -5.3309687e-06 2.646978e-19 0)
(-2.113654e-06 -8.0968589e-07 -3.2311743e-22 3.0125563e-07 0 0)
(-2.0153154e-06 -6.9243306e-07 -9.0472879e-22 5.9906944e-07 -2.0679515e-21 0)
(-1.8839451e-06 -6.3948874e-07 -2.3264455e-21 5.7364293e-07 -1.0339758e-21 0)
(-1.7538023e-06 -6.0998969e-07 -7.7548182e-22 5.3091839e-07 -3.1019273e-21 0)
(-1.6288322e-06 -5.899854e-07 -2.5849394e-21 4.9130661e-07 -1.0339758e-20 0)
(-1.5081146e-06 -5.7207477e-07 -5.1698788e-21 4.5451653e-07 4.1359031e-21 0)
(-1.39126e-06 -5.5459368e-07 -4.1359031e-21 4.1933143e-07 0 0)
(-1.2781498e-06 -5.3719567e-07 -3.1019273e-21 3.8537245e-07 4.1359031e-21 0)
(-1.1687522e-06 -5.1982323e-07 -1.5509636e-21 3.5254707e-07 2.4815418e-20 0)
(-1.0630561e-06 -5.0246878e-07 -8.2718061e-21 3.2083552e-07 -4.1359031e-20 0)
(-9.610547e-07 -4.8513249e-07 -3.1019273e-21 2.902328e-07 -8.2718061e-21 0)
(-8.6274131e-07 -4.6781572e-07 -3.1019273e-21 2.6073643e-07 -3.3087225e-20 0)
(-7.6810919e-07 -4.5051993e-07 -2.0679515e-21 2.323443e-07 -4.9630837e-20 0)
(-6.7715107e-07 -4.3324668e-07 -5.1698788e-21 2.050542e-07 -1.6543612e-20 0)
(-5.8985922e-07 -4.1599744e-07 -5.1698788e-21 1.788638e-07 6.6174449e-20 0)
(-5.0622539e-07 -3.9877369e-07 -2.0679515e-21 1.5377063e-07 1.6543612e-20 0)
(-4.2624088e-07 -3.8157683e-07 -7.2378304e-21 1.297721e-07 -1.1580529e-19 0)
(-3.4989653e-07 -3.6440819e-07 -8.2718061e-21 1.0686547e-07 -1.6543612e-20 0)
(-2.7718276e-07 -3.4726901e-07 -5.1698788e-21 8.5047861e-08 0 0)
(-2.0808957e-07 -3.3016048e-07 -1.0339758e-21 6.4316297e-08 1.323489e-19 0)
(-1.4260662e-07 -3.1308367e-07 -1.0339758e-21 4.4667681e-08 6.6174449e-20 0)
(-8.0723178e-08 -2.9603962e-07 -8.2718061e-21 2.6098808e-08 -3.3087225e-20 0)
(-2.2428239e-08 -2.7902928e-07 -4.1359031e-21 8.6063815e-09 -9.9261674e-20 0)
(3.2289516e-08 -2.6205354e-07 -5.1698788e-21 -7.8129862e-09 -6.6174449e-20 0)
(8.3441665e-08 -2.4511332e-07 -8.2718061e-21 -2.3162764e-08 0 0)
(1.3104006e-07 -2.2820958e-07 -5.1698788e-21 -3.744653e-08 -9.9261674e-20 0)
(1.7509683e-07 -2.1134347e-07 -9.3057819e-21 -5.0667967e-08 0 0)
(2.1562449e-07 -1.9451638e-07 -2.0679515e-21 -6.28309e-08 3.3087225e-20 0)
(2.5263566e-07 -1.7772884e-07 -4.1359031e-21 -7.3938949e-08 -2.646978e-19 0)
(2.8614239e-07 -1.6097828e-07 -8.2718061e-21 -8.3994837e-08 6.6174449e-20 0)
(3.1615455e-07 -1.4425705e-07 -9.3057819e-21 -9.29991e-08 6.6174449e-20 0)
(3.4267683e-07 -1.2755206e-07 -8.2718061e-21 -1.009458e-07 -6.6174449e-20 0)
(3.6569907e-07 -1.1083853e-07 -2.0679515e-21 -1.0780171e-07 -1.323489e-19 0)
(3.8515699e-07 -9.4017566e-08 -8.2718061e-21 -1.1339605e-07 -6.6174449e-20 0)
(4.0076023e-07 -7.6532934e-08 -5.1698788e-21 -1.1690657e-07 0 0)
(4.1132629e-07 -5.5395459e-08 -3.1019273e-21 -1.1477815e-07 1.323489e-19 0)
(4.1250087e-07 -1.5466828e-08 -4.1359031e-21 -9.5221963e-08 -1.323489e-19 0)
(3.9361673e-07 1.0321263e-07 -4.1359031e-21 -3.5054635e-08 6.6174449e-20 0)
(3.4761786e-07 5.2944584e-07 -3.1019273e-21 -9.0221083e-08 -3.3087225e-19 0)
(6.3168669e-07 1.1243893e-06 -7.2378304e-21 -1.6953054e-06 -6.6174449e-20 0)
(2.1136001e-06 -8.0968226e-07 -1.6155871e-23 -3.0124854e-07 1.6155871e-22 0)
(2.0152579e-06 -6.9243118e-07 7.7548182e-22 -5.9905324e-07 1.0339758e-21 0)
(1.8838865e-06 -6.3948623e-07 -2.5849394e-22 -5.7362426e-07 3.1019273e-21 0)
(1.7537433e-06 -6.0998609e-07 -2.5849394e-22 -5.3089921e-07 5.1698788e-21 0)
(1.628773e-06 -5.8998072e-07 1.5509636e-21 -4.9128739e-07 -1.0339758e-20 0)
(1.5080553e-06 -5.7206909e-07 -1.0339758e-21 -4.5449733e-07 4.1359031e-21 0)
(1.3912009e-06 -5.5458708e-07 1.5509636e-21 -4.1931229e-07 0 0)
(1.2780909e-06 -5.3718817e-07 1.0339758e-21 -3.853534e-07 2.8951321e-20 0)
(1.1686939e-06 -5.1981488e-07 0 -3.5252815e-07 -8.2718061e-21 0)
(1.0629986e-06 -5.0245959e-07 0 -3.2081681e-07 -8.2718061e-21 0)
(9.6099816e-07 -4.8512251e-07 2.0679515e-21 -2.9021435e-07 2.4815418e-20 0)
(8.6268602e-07 -4.6780495e-07 3.1019273e-21 -2.6071834e-07 -4.1359031e-20 0)
(7.6805536e-07 -4.5050842e-07 2.0679515e-21 -2.3232664e-07 1.6543612e-20 0)
(6.7709893e-07 -4.3323444e-07 0 -2.0503704e-07 -3.3087225e-20 0)
(5.8980894e-07 -4.1598453e-07 -7.2378304e-21 -1.7884723e-07 1.6543612e-19 0)
(5.0617717e-07 -3.9876013e-07 3.1019273e-21 -1.5375472e-07 -3.3087225e-20 0)
(4.2619488e-07 -3.8156265e-07 4.1359031e-21 -1.2975691e-07 -4.9630837e-20 0)
(3.498529e-07 -3.6439343e-07 2.0679515e-21 -1.0685105e-07 0 0)
(2.7714164e-07 -3.4725372e-07 0 -8.5034278e-08 -1.323489e-19 0)
(2.0805107e-07 -3.3014469e-07 -4.1359031e-21 -6.4303586e-08 3.3087225e-20 0)
(1.4257083e-07 -3.1306744e-07 0 -4.465587e-08 3.3087225e-20 0)
(8.0690175e-08 -2.9602299e-07 1.0339758e-21 -2.6087917e-08 -3.3087225e-20 0)
(2.2398036e-08 -2.7901228e-07 -1.0339758e-21 -8.5964104e-09 -3.3087225e-20 0)
(-3.2316966e-08 -2.6203623e-07 0 7.8220651e-09 -3.3087225e-20 0)
(-8.3466517e-08 -2.4509573e-07 -3.1019273e-21 2.3171011e-08 -1.6543612e-19 0)
(-1.3106258e-07 -2.2819175e-07 -1.0339758e-21 3.7454006e-08 -1.323489e-19 0)
(-1.7511738e-07 -2.1132549e-07 2.0679515e-21 5.0674574e-08 -3.3087225e-19 0)
(-2.1564338e-07 -1.9449842e-07 1.0339758e-21 6.2836085e-08 0 0)
(-2.5265315e-07 -1.7771105e-07 -4.1359031e-21 7.394182e-08 -1.323489e-19 0)
(-2.8615889e-07 -1.6096063e-07 0 8.3995047e-08 0 0)
(-3.1617103e-07 -1.4423917e-07 -1.0339758e-21 9.2998163e-08 -1.323489e-19 0)
(-3.4269469e-07 -1.2753363e-07 -2.0679515e-21 1.0094726e-07 -1.9852335e-19 0)
(-3.6571939e-07 -1.1081993e-07 -1.0339758e-21 1.0780836e-07 0 0)
(-3.8517894e-07 -9.399972e-08 -1.0339758e-21 1.1340647e-07 -1.9852335e-19 0)
(-4.0078117e-07 -7.6516357e-08 -1.0339758e-21 1.1691529e-07 -6.6174449e-20 0)
(-4.1134337e-07 -5.5379855e-08 -1.0339758e-21 1.1478024e-07 -1.323489e-19 0)
(-4.1251271e-07 -1.5451403e-08 0 9.5217899e-08 -6.6174449e-20 0)
(-3.9362499e-07 1.0322795e-07 1.0339758e-21 3.5049297e-08 1.9852335e-19 0)
(-3.4762377e-07 5.2945982e-07 0 9.0216903e-08 6.6174449e-20 0)
(-6.3168718e-07 1.1243985e-06 -1.0339758e-21 1.6952947e-06 6.6174449e-20 0)
(5.462271e-06 -9.5855146e-08 6.4623485e-22 -1.5380815e-06 -5.8161137e-22 0)
(5.8972538e-06 -2.7753302e-07 2.0679515e-21 -1.7113427e-06 -2.0679515e-21 0)
(5.6028664e-06 -2.7626636e-07 3.6189152e-21 -1.684458e-06 1.5509636e-21 0)
(5.2460887e-06 -2.7698809e-07 1.0339758e-21 -1.5771831e-06 4.1359031e-21 0)
(4.8767435e-06 -2.707505e-07 5.1698788e-21 -1.4658827e-06 0 0)
(4.5155523e-06 -2.6335225e-07 3.1019273e-21 -1.357176e-06 4.1359031e-21 0)
(4.1651159e-06 -2.5566735e-07 0 -1.2519548e-06 0 0)
(3.8258088e-06 -2.4793371e-07 2.0679515e-21 -1.1501407e-06 -4.1359031e-21 0)
(3.4976302e-06 -2.401921e-07 6.2038546e-21 -1.051682e-06 2.4815418e-20 0)
(3.1805572e-06 -2.3245058e-07 2.688337e-20 -9.5655839e-07 3.3087225e-20 0)
(2.8745693e-06 -2.2471088e-07 -2.0679515e-21 -8.6476104e-07 0 0)
(2.5796471e-06 -2.1697364e-07 1.2407709e-20 -7.7628352e-07 8.2718061e-21 0)
(2.2957703e-06 -2.0923919e-07 4.1359031e-21 -6.9111959e-07 -1.6543612e-20 0)
(2.0229171e-06 -2.0150779e-07 4.1359031e-21 -6.0926269e-07 1.6543612e-20 0)
(1.7610642e-06 -1.9377966e-07 6.2038546e-21 -5.3070583e-07 1.6543612e-20 0)
(1.5101868e-06 -1.8605502e-07 4.1359031e-21 -4.5544158e-07 6.6174449e-20 0)
(1.2702588e-06 -1.7833407e-07 2.0679515e-20 -3.8346206e-07 -4.9630837e-20 0)
(1.0412525e-06 -1.70617e-07 8.2718061e-21 -3.1475903e-07 3.3087225e-20 0)
(8.2313911e-07 -1.6290398e-07 8.2718061e-21 -2.4932383e-07 -3.3087225e-20 0)
(6.1588859e-07 -1.5519517e-07 8.2718061e-21 -1.8714744e-07 1.323489e-19 0)
(4.1946974e-07 -1.4749073e-07 1.6543612e-20 -1.282205e-07 0 0)
(2.3385033e-07 -1.397908e-07 4.1359031e-21 -7.2533357e-08 -9.9261674e-20 0)
(5.8997142e-08 -1.3209552e-07 -4.1359031e-21 -2.0076037e-08 -6.6174449e-20 0)
(-1.0512394e-07 -1.2440503e-07 1.2407709e-20 2.9161699e-08 -1.323489e-19 0)
(-2.5854785e-07 -1.1671949e-07 1.6543612e-20 7.5190335e-08 -1.323489e-19 0)
(-4.0131029e-07 -1.0903912e-07 0 1.180206e-07 1.323489e-19 0)
(-5.3344783e-07 -1.013644e-07 4.1359031e-21 1.5766341e-07 -1.323489e-19 0)
(-6.5499833e-07 -9.3696191e-08 4.1359031e-21 1.941299e-07 -6.6174449e-20 0)
(-7.6600115e-07 -8.6035366e-08 2.0679515e-20 2.2743147e-07 -1.6543612e-19 0)
(-8.6649562e-07 -7.8381905e-08 8.2718061e-21 2.5757918e-07 -1.9852335e-19 0)
(-9.5651623e-07 -7.073524e-08 2.0679515e-20 2.8458187e-07 1.323489e-19 0)
(-1.0360842e-06 -6.3099867e-08 8.2718061e-21 3.0843933e-07 0 0)
(-1.1051907e-06 -5.5502613e-08 -2.0679515e-21 3.2911857e-07 -1.323489e-19 0)
(-1.1637632e-06 -4.8048956e-08 0 3.4646704e-07 -1.323489e-19 0)
(-1.2118067e-06 -4.1199508e-08 1.8611564e-20 3.5993895e-07 0 0)
(-1.2512757e-06 -3.6960223e-08 6.2038546e-21 3.6847212e-07 -6.6174449e-20 0)
(-1.3044821e-06 -4.5925488e-08 4.1359031e-21 3.7381311e-07 -1.323489e-19 0)
(-1.4847394e-06 -9.5465988e-08 1.2407709e-20 4.4057468e-07 6.6174449e-20 0)
(-2.6811312e-06 -4.1354503e-07 6.2038546e-21 8.7990017e-07 -1.323489e-19 0)
(-5.4042481e-06 1.6173921e-07 1.0339758e-20 5.3309717e-06 -1.323489e-19 0)
)
;

boundaryField
{
    left
    {
        type            calculated;
        value           nonuniform List<symmTensor> 4((-6.6943472e-06 -3.955585e-07 0 1.3891565e-06 0 0) (-1.8941749e-06 -5.9890999e-07 0 0 0 0) (1.8941247e-06 -5.9890494e-07 0 0 0 0) (6.694293e-06 -3.9555042e-07 0 -1.3891449e-06 0 0));
    }
    right
    {
        type            calculated;
        value           nonuniform List<symmTensor> 4((2.8216521e-06 5.0165135e-09 0 -9.4070046e-06 0 0) (9.6027449e-07 7.5043634e-09 0 -3.2014192e-06 0 0) (-9.6026919e-07 7.504307e-09 0 3.2014016e-06 0 0) (-2.8216539e-06 5.0164512e-09 0 9.4070104e-06 0 0));
    }
    top
    {
        type            calculated;
        value           nonuniform List<symmTensor> 
40
(
(6.6973149e-06 -3.5787712e-10 0 -2.0090561e-06 0 0)
(7.7639623e-06 -6.8585901e-10 0 -2.3290138e-06 0 0)
(7.4379298e-06 -1.0945739e-09 0 -2.2311992e-06 0 0)
(6.9846606e-06 -1.5237233e-09 0 -2.0952185e-06 0 0)
(6.4959109e-06 -1.9521257e-09 0 -1.9485953e-06 0 0)
(6.0149638e-06 -2.3758123e-09 0 -1.8043135e-06 0 0)
(5.5477999e-06 -2.7932546e-09 0 -1.6641672e-06 0 0)
(5.0954058e-06 -3.2033342e-09 0 -1.5284523e-06 0 0)
(4.6578431e-06 -3.6049798e-09 0 -1.3971872e-06 0 0)
(4.2350879e-06 -3.9971395e-09 0 -1.2703648e-06 0 0)
(3.8271136e-06 -4.3787842e-09 0 -1.1479771e-06 0 0)
(3.4338942e-06 -4.7489117e-09 0 -1.0300163e-06 0 0)
(3.0554027e-06 -5.1065498e-09 0 -9.1647426e-07 0 0)
(2.69161e-06 -5.4507591e-09 0 -8.0734225e-07 0 0)
(2.3424851e-06 -5.7806353e-09 0 -7.0261095e-07 0 0)
(2.0079949e-06 -6.0953118e-09 0 -6.0227041e-07 0 0)
(1.6881045e-06 -6.3939617e-09 0 -5.0631015e-07 0 0)
(1.3827771e-06 -6.6758003e-09 0 -4.1471909e-07 0 0)
(1.0919741e-06 -6.940087e-09 0 -3.2748568e-07 0 0)
(8.1565554e-07 -7.1861275e-09 0 -2.4459787e-07 0 0)
(5.5377972e-07 -7.4132751e-09 0 -1.6604313e-07 0 0)
(3.0630362e-07 -7.6209331e-09 0 -9.1808555e-08 0 0)
(7.3182944e-08 -7.8085555e-09 0 -2.1880822e-08 0 0)
(-1.456278e-07 -7.9756494e-09 0 4.3753738e-08 0 0)
(-3.501752e-07 -8.1217751e-09 0 1.0510912e-07 0 0)
(-5.4050679e-07 -8.2465478e-09 0 1.6219962e-07 0 0)
(-7.1667127e-07 -8.3496372e-09 0 2.1503985e-07 0 0)
(-8.7871943e-07 -8.4307704e-09 0 2.6364509e-07 0 0)
(-1.0267047e-06 -8.4897376e-09 0 3.080314e-07 0 0)
(-1.1606815e-06 -8.5264016e-09 0 3.4821511e-07 0 0)
(-1.2806983e-06 -8.5406983e-09 0 3.842108e-07 0 0)
(-1.3867877e-06 -8.5326159e-09 0 4.1602825e-07 0 0)
(-1.4789528e-06 -8.5021724e-09 0 4.4366843e-07 0 0)
(-1.5571798e-06 -8.4494384e-09 0 4.6712725e-07 0 0)
(-1.6220616e-06 -8.3746137e-09 0 4.8658254e-07 0 0)
(-1.6798728e-06 -8.2775985e-09 0 5.0391641e-07 0 0)
(-1.7839438e-06 -8.1535304e-09 0 5.3512551e-07 0 0)
(-2.1822322e-06 -7.9543152e-09 0 6.5458515e-07 0 0)
(-4.6670174e-06 -7.4568843e-09 0 1.3998931e-06 0 0)
(-9.5451215e-06 -4.9676366e-09 0 2.8630813e-06 0 0)
)
;
    }
    bottom
    {
        type            calculated;
        value           nonuniform List<symmTensor> 
40
(
(-6.6973564e-06 -3.5783826e-10 0 2.0090686e-06 0 0)
(-7.7640117e-06 -6.8584393e-10 0 2.3290287e-06 0 0)
(-7.4379827e-06 -1.0945699e-09 0 2.2312151e-06 0 0)
(-6.9847156e-06 -1.5237223e-09 0 2.095235e-06 0 0)
(-6.4959669e-06 -1.9521254e-09 0 1.9486121e-06 0 0)
(-6.0150201e-06 -2.3758123e-09 0 1.8043304e-06 0 0)
(-5.5478563e-06 -2.7932549e-09 0 1.6641841e-06 0 0)
(-5.095462e-06 -3.2033347e-09 0 1.5284691e-06 0 0)
(-4.6578988e-06 -3.6049806e-09 0 1.3972039e-06 0 0)
(-4.2351429e-06 -3.9971406e-09 0 1.2703813e-06 0 0)
(-3.8271676e-06 -4.3787857e-09 0 1.1479933e-06 0 0)
(-3.4339471e-06 -4.7489135e-09 0 1.0300322e-06 0 0)
(-3.0554542e-06 -5.1065519e-09 0 9.1648974e-07 0 0)
(-2.6916599e-06 -5.4507616e-09 0 8.0735725e-07 0 0)
(-2.3425332e-06 -5.7806381e-09 0 7.0262541e-07 0 0)
(-2.0080411e-06 -6.0953149e-09 0 6.022843e-07 0 0)
(-1.6881486e-06 -6.3939651e-09 0 5.063234e-07 0 0)
(-1.3828189e-06 -6.6758039e-09 0 4.1473168e-07 0 0)
(-1.0920136e-06 -6.9400909e-09 0 3.2749756e-07 0 0)
(-8.1569258e-07 -7.1861314e-09 0 2.4460899e-07 0 0)
(-5.5381418e-07 -7.4132792e-09 0 1.6605349e-07 0 0)
(-3.0633548e-07 -7.6209372e-09 0 9.1818128e-08 0 0)
(-7.3212178e-08 -7.8085596e-09 0 2.1889607e-08 0 0)
(1.4560114e-07 -7.9756533e-09 0 -4.3745726e-08 0 0)
(3.5015102e-07 -8.1217787e-09 0 -1.0510186e-07 0 0)
(5.4048498e-07 -8.2465512e-09 0 -1.6219306e-07 0 0)
(7.1665173e-07 -8.3496414e-09 0 -2.1503398e-07 0 0)
(8.7870155e-07 -8.4307772e-09 0 -2.6363972e-07 0 0)
(1.0266872e-06 -8.4897468e-09 0 -3.0802614e-07 0 0)
(1.1606627e-06 -8.5264091e-09 0 -3.4820946e-07 0 0)
(1.2806776e-06 -8.5406959e-09 0 -3.8420457e-07 0 0)
(1.3867668e-06 -8.5326003e-09 0 -4.1602198e-07 0 0)
(1.4789339e-06 -8.502154e-09 0 -4.4366278e-07 0 0)
(1.5571633e-06 -8.4494347e-09 0 -4.671223e-07 0 0)
(1.6220449e-06 -8.3746315e-09 0 -4.8657752e-07 0 0)
(1.6798531e-06 -8.2776254e-09 0 -5.039105e-07 0 0)
(1.7839237e-06 -8.1535439e-09 0 -5.3511944e-07 0 0)
(2.1822181e-06 -7.9543111e-09 0 -6.545809e-07 0 0)
(4.6670115e-06 -7.4568827e-09 0 -1.3998913e-06 0 0)
(9.5451177e-06 -4.9676561e-09 0 -2.8630802e-06 0 0)
)
;
    }
    frontAndBack
    {
        type            empty;
    }
}


// ************************************************************************* //
