/*--------------------------------*- C++ -*----------------------------------*\
| =========                 |                                                 |
| \\      /  F ield         | OpenFOAM: The Open Source CFD Toolbox           |
|  \\    /   O peration     | Version:  2512                                  |
|   \\  /    A nd           | Website:  www.openfoam.com                      |
|    \\/     M anipulation  |                                                 |
\*---------------------------------------------------------------------------*/
FoamFile
{
    version     2.0;
    format      ascii;
    arch        "LSB;label=32;scalar=64";
    class       pointVectorField;
    location    "0.8";
    object      pointD;
}
// * * * * * * * * * * * * * * * * * * * * * * * * * * * * * * * * * * * * * //

dimensions      [0 1 0 0 0 0 0];

internalField   nonuniform List<vector> 
410
(
(-6.891101e-08 -3.4728912e-08 0)
(-2.3634492e-07 -1.4303216e-07 0)
(-4.3044521e-07 -3.3484756e-07 0)
(-6.1639478e-07 -6.1725545e-07 0)
(-7.9101267e-07 -9.8891888e-07 0)
(-9.5341184e-07 -1.4442347e-06 0)
(-1.1037873e-06 -1.9771891e-06 0)
(-1.2424838e-06 -2.5818547e-06 0)
(-1.3698703e-06 -3.2524828e-06 0)
(-1.4863178e-06 -3.9835108e-06 0)
(-1.5921963e-06 -4.769562e-06 0)
(-1.6878755e-06 -5.6054445e-06 0)
(-1.7737242e-06 -6.4861515e-06 0)
(-1.8501106e-06 -7.4068601e-06 0)
(-1.9174021e-06 -8.3629315e-06 0)
(-1.9759654e-06 -9.3499106e-06 0)
(-2.0261664e-06 -1.0363525e-05 0)
(-2.0683701e-06 -1.1399686e-05 0)
(-2.1029406e-06 -1.2454487e-05 0)
(-2.1302409e-06 -1.3524201e-05 0)
(-2.1506333e-06 -1.4605286e-05 0)
(-2.1644786e-06 -1.5694378e-05 0)
(-2.172137e-06 -1.6788294e-05 0)
(-2.1739673e-06 -1.7884032e-05 0)
(-2.1703273e-06 -1.8978768e-05 0)
(-2.1615735e-06 -2.0069856e-05 0)
(-2.1480614e-06 -2.1154829e-05 0)
(-2.1301451e-06 -2.2231398e-05 0)
(-2.1081775e-06 -2.329745e-05 0)
(-2.0825104e-06 -2.4351047e-05 0)
(-2.0534938e-06 -2.5390429e-05 0)
(-2.0214769e-06 -2.6414009e-05 0)
(-1.9868077e-06 -2.7420374e-05 0)
(-1.9498343e-06 -2.8408288e-05 0)
(-1.9109053e-06 -2.9376693e-05 0)
(-1.8703541e-06 -3.0324717e-05 0)
(-1.8283578e-06 -3.1251628e-05 0)
(-1.7837597e-06 -3.2156295e-05 0)
(-1.7292043e-06 -3.303247e-05 0)
(-1.612529e-06 -3.3849696e-05 0)
(-1.373901e-06 -3.4392464e-05 0)
(0 0 0)
(-1.0568202e-07 -1.0085636e-07 0)
(-2.0644706e-07 -2.9145546e-07 0)
(-3.0064356e-07 -5.7642381e-07 0)
(-3.8833293e-07 -9.508905e-07 0)
(-4.6977378e-07 -1.408968e-06 0)
(-5.4517876e-07 -1.944596e-06 0)
(-6.1474101e-07 -2.5518491e-06 0)
(-6.7864775e-07 -3.2249805e-06 0)
(-7.3708462e-07 -3.9584282e-06 0)
(-7.902367e-07 -4.7468158e-06 0)
(-8.3828872e-07 -5.5849518e-06 0)
(-8.8142508e-07 -6.4678292e-06 0)
(-9.1982986e-07 -7.3906255e-06 0)
(-9.5368675e-07 -8.3487021e-06 0)
(-9.8317908e-07 -9.3376039e-06 0)
(-1.0084897e-06 -1.0353059e-05 0)
(-1.0298012e-06 -1.1390979e-05 0)
(-1.0472955e-06 -1.2447456e-05 0)
(-1.0611541e-06 -1.3518765e-05 0)
(-1.0715581e-06 -1.4601364e-05 0)
(-1.078688e-06 -1.5691888e-05 0)
(-1.0827237e-06 -1.6787156e-05 0)
(-1.0838447e-06 -1.7884165e-05 0)
(-1.0822299e-06 -1.8980092e-05 0)
(-1.0780575e-06 -2.0072291e-05 0)
(-1.0715052e-06 -2.1158295e-05 0)
(-1.0627501e-06 -2.2235816e-05 0)
(-1.0519687e-06 -2.3302739e-05 0)
(-1.0393367e-06 -2.435713e-05 0)
(-1.0250293e-06 -2.5397226e-05 0)
(-1.0092214e-06 -2.6421441e-05 0)
(-9.9208735e-07 -2.7428364e-05 0)
(-9.7380214e-07 -2.8416755e-05 0)
(-9.5454401e-07 -2.938555e-05 0)
(-9.3450573e-07 -3.0333857e-05 0)
(-9.1393921e-07 -3.1260911e-05 0)
(-8.9331404e-07 -3.2165702e-05 0)
(-8.7363312e-07 -3.3045092e-05 0)
(-8.5625217e-07 -3.388107e-05 0)
(-8.2466784e-07 -3.4627639e-05 0)
(0 0 0)
(-6.7635763e-13 -8.5793578e-08 0)
(-1.4130663e-12 -2.7656477e-07 0)
(-2.1627227e-12 -5.6263235e-07 0)
(-2.9146822e-12 -9.3813604e-07 0)
(-3.6673097e-12 -1.3971572e-06 0)
(-4.4198052e-12 -1.9336811e-06 0)
(-5.1705886e-12 -2.5417975e-06 0)
(-5.9172224e-12 -3.2157635e-06 0)
(-6.6569498e-12 -3.9500179e-06 0)
(-7.3867161e-12 -4.7391844e-06 0)
(-8.103575e-12 -5.5780716e-06 0)
(-8.8044966e-12 -6.4616726e-06 0)
(-9.4867362e-12 -7.3851649e-06 0)
(-1.014754e-11 -8.34391e-06 0)
(-1.0784521e-11 -9.3334528e-06 0)
(-1.1395293e-11 -1.0349522e-05 0)
(-1.1977868e-11 -1.1388027e-05 0)
(-1.2530243e-11 -1.2445063e-05 0)
(-1.3050831e-11 -1.3516905e-05 0)
(-1.3538046e-11 -1.4600008e-05 0)
(-1.399078e-11 -1.569101e-05 0)
(-1.440808e-11 -1.6786729e-05 0)
(-1.4789748e-11 -1.7884162e-05 0)
(-1.5136352e-11 -1.8980486e-05 0)
(-1.5449986e-11 -2.0073055e-05 0)
(-1.5734281e-11 -2.1159403e-05 0)
(-1.5993898e-11 -2.2237241e-05 0)
(-1.6232021e-11 -2.3304455e-05 0)
(-1.6450216e-11 -2.435911e-05 0)
(-1.6651991e-11 -2.5399445e-05 0)
(-1.6850494e-11 -2.6423872e-05 0)
(-1.7068378e-11 -2.743098e-05 0)
(-1.7323453e-11 -2.8419528e-05 0)
(-1.7604365e-11 -2.9388446e-05 0)
(-1.7870005e-11 -3.0336806e-05 0)
(-1.8074635e-11 -3.1263701e-05 0)
(-1.8201715e-11 -3.2167674e-05 0)
(-1.8287464e-11 -3.3044873e-05 0)
(-1.8350706e-11 -3.3885799e-05 0)
(-1.8340396e-11 -3.4707674e-05 0)
(0 0 0)
(1.0568068e-07 -1.00856e-07 0)
(2.0644431e-07 -2.9145501e-07 0)
(3.0063939e-07 -5.7642333e-07 0)
(3.8832731e-07 -9.5089002e-07 0)
(4.6976671e-07 -1.4089676e-06 0)
(5.4517023e-07 -1.9445956e-06 0)
(6.1473102e-07 -2.5518487e-06 0)
(6.7863632e-07 -3.22498e-06 0)
(7.3707175e-07 -3.9584277e-06 0)
(7.9022241e-07 -4.7468154e-06 0)
(8.3827303e-07 -5.5849513e-06 0)
(8.8140804e-07 -6.4678288e-06 0)
(9.1981149e-07 -7.3906251e-06 0)
(9.5366709e-07 -8.3487017e-06 0)
(9.8315818e-07 -9.3376035e-06 0)
(1.0084676e-06 -1.0353059e-05 0)
(1.029778e-06 -1.1390978e-05 0)
(1.0472712e-06 -1.2447455e-05 0)
(1.0611288e-06 -1.3518765e-05 0)
(1.0715318e-06 -1.4601363e-05 0)
(1.0786608e-06 -1.5691888e-05 0)
(1.0826957e-06 -1.6787156e-05 0)
(1.083816e-06 -1.7884165e-05 0)
(1.0822005e-06 -1.8980092e-05 0)
(1.0780275e-06 -2.0072291e-05 0)
(1.0714747e-06 -2.1158295e-05 0)
(1.062719e-06 -2.2235815e-05 0)
(1.0519371e-06 -2.3302739e-05 0)
(1.0393047e-06 -2.435713e-05 0)
(1.0249969e-06 -2.5397226e-05 0)
(1.0091886e-06 -2.6421441e-05 0)
(9.9205407e-07 -2.7428364e-05 0)
(9.7376835e-07 -2.8416754e-05 0)
(9.5450969e-07 -2.938555e-05 0)
(9.3447089e-07 -3.0333857e-05 0)
(9.1390393e-07 -3.1260911e-05 0)
(8.9327842e-07 -3.2165702e-05 0)
(8.7359726e-07 -3.3045092e-05 0)
(8.5621613e-07 -3.388107e-05 0)
(8.2463176e-07 -3.4627639e-05 0)
(6.8910566e-08 -3.4728622e-08 0)
(2.3634344e-07 -1.4303146e-07 0)
(4.3044249e-07 -3.3484669e-07 0)
(6.1639074e-07 -6.1725454e-07 0)
(7.9100726e-07 -9.8891796e-07 0)
(9.5340503e-07 -1.4442337e-06 0)
(1.1037791e-06 -1.9771882e-06 0)
(1.2424741e-06 -2.5818538e-06 0)
(1.3698593e-06 -3.2524819e-06 0)
(1.4863053e-06 -3.9835099e-06 0)
(1.5921825e-06 -4.7695611e-06 0)
(1.6878604e-06 -5.6054437e-06 0)
(1.7737077e-06 -6.4861506e-06 0)
(1.8500928e-06 -7.4068592e-06 0)
(1.9173831e-06 -8.3629307e-06 0)
(1.9759452e-06 -9.3499098e-06 0)
(2.0261451e-06 -1.0363525e-05 0)
(2.0683477e-06 -1.1399686e-05 0)
(2.1029171e-06 -1.2454486e-05 0)
(2.1302164e-06 -1.35242e-05 0)
(2.1506078e-06 -1.4605285e-05 0)
(2.1644523e-06 -1.5694377e-05 0)
(2.1721099e-06 -1.6788294e-05 0)
(2.1739395e-06 -1.7884032e-05 0)
(2.1702988e-06 -1.8978767e-05 0)
(2.1615444e-06 -2.0069856e-05 0)
(2.1480317e-06 -2.1154829e-05 0)
(2.130115e-06 -2.2231398e-05 0)
(2.108147e-06 -2.329745e-05 0)
(2.0824794e-06 -2.4351047e-05 0)
(2.0534623e-06 -2.5390429e-05 0)
(2.0214449e-06 -2.6414009e-05 0)
(1.9867752e-06 -2.7420374e-05 0)
(1.9498013e-06 -2.8408288e-05 0)
(1.9108719e-06 -2.9376693e-05 0)
(1.8703203e-06 -3.0324717e-05 0)
(1.8283235e-06 -3.1251628e-05 0)
(1.7837249e-06 -3.2156295e-05 0)
(1.7291691e-06 -3.303247e-05 0)
(1.6124937e-06 -3.3849696e-05 0)
(1.3738656e-06 -3.4392464e-05 0)
(-6.891101e-08 -3.4728912e-08 0)
(-2.3634492e-07 -1.4303216e-07 0)
(-4.3044521e-07 -3.3484756e-07 0)
(-6.1639478e-07 -6.1725545e-07 0)
(-7.9101267e-07 -9.8891888e-07 0)
(-9.5341184e-07 -1.4442347e-06 0)
(-1.1037873e-06 -1.9771891e-06 0)
(-1.2424838e-06 -2.5818547e-06 0)
(-1.3698703e-06 -3.2524828e-06 0)
(-1.4863178e-06 -3.9835108e-06 0)
(-1.5921963e-06 -4.769562e-06 0)
(-1.6878755e-06 -5.6054445e-06 0)
(-1.7737242e-06 -6.4861515e-06 0)
(-1.8501106e-06 -7.4068601e-06 0)
(-1.9174021e-06 -8.3629315e-06 0)
(-1.9759654e-06 -9.3499106e-06 0)
(-2.0261664e-06 -1.0363525e-05 0)
(-2.0683701e-06 -1.1399686e-05 0)
(-2.1029406e-06 -1.2454487e-05 0)
(-2.1302409e-06 -1.3524201e-05 0)
(-2.1506333e-06 -1.4605286e-05 0)
(-2.1644786e-06 -1.5694378e-05 0)
(-2.172137e-06 -1.6788294e-05 0)
(-2.1739673e-06 -1.7884032e-05 0)
(-2.1703273e-06 -1.8978768e-05 0)
(-2.1615735e-06 -2.0069856e-05 0)
(-2.1480614e-06 -2.1154829e-05 0)
(-2.1301451e-06 -2.2231398e-05 0)
(-2.1081775e-06 -2.329745e-05 0)
(-2.0825104e-06 -2.4351047e-05 0)
(-2.0534938e-06 -2.5390429e-05 0)
(-2.0214769e-06 -2.6414009e-05 0)
(-1.9868077e-06 -2.7420374e-05 0)
(-1.9498343e-06 -2.8408288e-05 0)
(-1.9109053e-06 -2.9376693e-05 0)
(-1.8703541e-06 -3.0324717e-05 0)
(-1.8283578e-06 -3.1251628e-05 0)
(-1.7837597e-06 -3.2156295e-05 0)
(-1.7292043e-06 -3.303247e-05 0)
(-1.612529e-06 -3.3849696e-05 0)
(-1.373901e-06 -3.4392464e-05 0)
(0 0 0)
(-1.0568202e-07 -1.0085636e-07 0)
(-2.0644706e-07 -2.9145546e-07 0)
(-3.0064356e-07 -5.7642381e-07 0)
(-3.8833293e-07 -9.508905e-07 0)
(-4.6977378e-07 -1.408968e-06 0)
(-5.4517876e-07 -1.944596e-06 0)
(-6.1474101e-07 -2.5518491e-06 0)
(-6.7864775e-07 -3.2249805e-06 0)
(-7.3708462e-07 -3.9584282e-06 0)
(-7.902367e-07 -4.7468158e-06 0)
(-8.3828872e-07 -5.5849518e-06 0)
(-8.8142508e-07 -6.4678292e-06 0)
(-9.1982986e-07 -7.3906255e-06 0)
(-9.5368675e-07 -8.3487021e-06 0)
(-9.8317908e-07 -9.3376039e-06 0)
(-1.0084897e-06 -1.0353059e-05 0)
(-1.0298012e-06 -1.1390979e-05 0)
(-1.0472955e-06 -1.2447456e-05 0)
(-1.0611541e-06 -1.3518765e-05 0)
(-1.0715581e-06 -1.4601364e-05 0)
(-1.078688e-06 -1.5691888e-05 0)
(-1.0827237e-06 -1.6787156e-05 0)
(-1.0838447e-06 -1.7884165e-05 0)
(-1.0822299e-06 -1.8980092e-05 0)
(-1.0780575e-06 -2.0072291e-05 0)
(-1.0715052e-06 -2.1158295e-05 0)
(-1.0627501e-06 -2.2235816e-05 0)
(-1.0519687e-06 -2.3302739e-05 0)
(-1.0393367e-06 -2.435713e-05 0)
(-1.0250293e-06 -2.5397226e-05 0)
(-1.0092214e-06 -2.6421441e-05 0)
(-9.9208735e-07 -2.7428364e-05 0)
(-9.7380214e-07 -2.8416755e-05 0)
(-9.5454401e-07 -2.938555e-05 0)
(-9.3450573e-07 -3.0333857e-05 0)
(-9.1393921e-07 -3.1260911e-05 0)
(-8.9331404e-07 -3.2165702e-05 0)
(-8.7363312e-07 -3.3045092e-05 0)
(-8.5625217e-07 -3.388107e-05 0)
(-8.2466784e-07 -3.4627639e-05 0)
(0 0 0)
(-6.7635763e-13 -8.5793578e-08 0)
(-1.4130663e-12 -2.7656477e-07 0)
(-2.1627227e-12 -5.6263235e-07 0)
(-2.9146822e-12 -9.3813604e-07 0)
(-3.6673097e-12 -1.3971572e-06 0)
(-4.4198052e-12 -1.9336811e-06 0)
(-5.1705886e-12 -2.5417975e-06 0)
(-5.9172224e-12 -3.2157635e-06 0)
(-6.6569498e-12 -3.9500179e-06 0)
(-7.3867161e-12 -4.7391844e-06 0)
(-8.103575e-12 -5.5780716e-06 0)
(-8.8044966e-12 -6.4616726e-06 0)
(-9.4867362e-12 -7.3851649e-06 0)
(-1.014754e-11 -8.34391e-06 0)
(-1.0784521e-11 -9.3334528e-06 0)
(-1.1395293e-11 -1.0349522e-05 0)
(-1.1977868e-11 -1.1388027e-05 0)
(-1.2530243e-11 -1.2445063e-05 0)
(-1.3050831e-11 -1.3516905e-05 0)
(-1.3538046e-11 -1.4600008e-05 0)
(-1.399078e-11 -1.569101e-05 0)
(-1.440808e-11 -1.6786729e-05 0)
(-1.4789748e-11 -1.7884162e-05 0)
(-1.5136352e-11 -1.8980486e-05 0)
(-1.5449986e-11 -2.0073055e-05 0)
(-1.5734281e-11 -2.1159403e-05 0)
(-1.5993898e-11 -2.2237241e-05 0)
(-1.6232021e-11 -2.3304455e-05 0)
(-1.6450216e-11 -2.435911e-05 0)
(-1.6651991e-11 -2.5399445e-05 0)
(-1.6850494e-11 -2.6423872e-05 0)
(-1.7068378e-11 -2.743098e-05 0)
(-1.7323453e-11 -2.8419528e-05 0)
(-1.7604365e-11 -2.9388446e-05 0)
(-1.7870005e-11 -3.0336806e-05 0)
(-1.8074635e-11 -3.1263701e-05 0)
(-1.8201715e-11 -3.2167674e-05 0)
(-1.8287464e-11 -3.3044873e-05 0)
(-1.8350706e-11 -3.3885799e-05 0)
(-1.8340396e-11 -3.4707674e-05 0)
(0 0 0)
(1.0568068e-07 -1.00856e-07 0)
(2.0644431e-07 -2.9145501e-07 0)
(3.0063939e-07 -5.7642333e-07 0)
(3.8832731e-07 -9.5089002e-07 0)
(4.6976671e-07 -1.4089676e-06 0)
(5.4517023e-07 -1.9445956e-06 0)
(6.1473102e-07 -2.5518487e-06 0)
(6.7863632e-07 -3.22498e-06 0)
(7.3707175e-07 -3.9584277e-06 0)
(7.9022241e-07 -4.7468154e-06 0)
(8.3827303e-07 -5.5849513e-06 0)
(8.8140804e-07 -6.4678288e-06 0)
(9.1981149e-07 -7.3906251e-06 0)
(9.5366709e-07 -8.3487017e-06 0)
(9.8315818e-07 -9.3376035e-06 0)
(1.0084676e-06 -1.0353059e-05 0)
(1.029778e-06 -1.1390978e-05 0)
(1.0472712e-06 -1.2447455e-05 0)
(1.0611288e-06 -1.3518765e-05 0)
(1.0715318e-06 -1.4601363e-05 0)
(1.0786608e-06 -1.5691888e-05 0)
(1.0826957e-06 -1.6787156e-05 0)
(1.083816e-06 -1.7884165e-05 0)
(1.0822005e-06 -1.8980092e-05 0)
(1.0780275e-06 -2.0072291e-05 0)
(1.0714747e-06 -2.1158295e-05 0)
(1.062719e-06 -2.2235815e-05 0)
(1.0519371e-06 -2.3302739e-05 0)
(1.0393047e-06 -2.435713e-05 0)
(1.0249969e-06 -2.5397226e-05 0)
(1.0091886e-06 -2.6421441e-05 0)
(9.9205407e-07 -2.7428364e-05 0)
(9.7376835e-07 -2.8416754e-05 0)
(9.5450969e-07 -2.938555e-05 0)
(9.3447089e-07 -3.0333857e-05 0)
(9.1390393e-07 -3.1260911e-05 0)
(8.9327842e-07 -3.2165702e-05 0)
(8.7359726e-07 -3.3045092e-05 0)
(8.5621613e-07 -3.388107e-05 0)
(8.2463176e-07 -3.4627639e-05 0)
(6.8910566e-08 -3.4728622e-08 0)
(2.3634344e-07 -1.4303146e-07 0)
(4.3044249e-07 -3.3484669e-07 0)
(6.1639074e-07 -6.1725454e-07 0)
(7.9100726e-07 -9.8891796e-07 0)
(9.5340503e-07 -1.4442337e-06 0)
(1.1037791e-06 -1.9771882e-06 0)
(1.2424741e-06 -2.5818538e-06 0)
(1.3698593e-06 -3.2524819e-06 0)
(1.4863053e-06 -3.9835099e-06 0)
(1.5921825e-06 -4.7695611e-06 0)
(1.6878604e-06 -5.6054437e-06 0)
(1.7737077e-06 -6.4861506e-06 0)
(1.8500928e-06 -7.4068592e-06 0)
(1.9173831e-06 -8.3629307e-06 0)
(1.9759452e-06 -9.3499098e-06 0)
(2.0261451e-06 -1.0363525e-05 0)
(2.0683477e-06 -1.1399686e-05 0)
(2.1029171e-06 -1.2454486e-05 0)
(2.1302164e-06 -1.35242e-05 0)
(2.1506078e-06 -1.4605285e-05 0)
(2.1644523e-06 -1.5694377e-05 0)
(2.1721099e-06 -1.6788294e-05 0)
(2.1739395e-06 -1.7884032e-05 0)
(2.1702988e-06 -1.8978767e-05 0)
(2.1615444e-06 -2.0069856e-05 0)
(2.1480317e-06 -2.1154829e-05 0)
(2.130115e-06 -2.2231398e-05 0)
(2.108147e-06 -2.329745e-05 0)
(2.0824794e-06 -2.4351047e-05 0)
(2.0534623e-06 -2.5390429e-05 0)
(2.0214449e-06 -2.6414009e-05 0)
(1.9867752e-06 -2.7420374e-05 0)
(1.9498013e-06 -2.8408288e-05 0)
(1.9108719e-06 -2.9376693e-05 0)
(1.8703203e-06 -3.0324717e-05 0)
(1.8283235e-06 -3.1251628e-05 0)
(1.7837249e-06 -3.2156295e-05 0)
(1.7291691e-06 -3.303247e-05 0)
(1.6124937e-06 -3.3849696e-05 0)
(1.3738656e-06 -3.4392464e-05 0)
)
;

boundaryField
{
    left
    {
        type            calculated;
    }
    right
    {
        type            calculated;
    }
    top
    {
        type            calculated;
    }
    bottom
    {
        type            calculated;
    }
    frontAndBack
    {
        type            empty;
    }
}


// ************************************************************************* //
