/*--------------------------------*- C++ -*----------------------------------*\
| =========                 |                                                 |
| \\      /  F ield         | OpenFOAM: The Open Source CFD Toolbox           |
|  \\    /   O peration     | Version:  2512                                  |
|   \\  /    A nd           | Website:  www.openfoam.com                      |
|    \\/     M anipulation  |                                                 |
\*---------------------------------------------------------------------------*/
FoamFile
{
    version     2.0;
    format      ascii;
    arch        "LSB;label=32;scalar=64";
    class       volScalarField;
    location    "0.8";
    object      sigmaEq;
}
// * * * * * * * * * * * * * * * * * * * * * * * * * * * * * * * * * * * * * //

dimensions      [1 -1 -2 0 0 0 0];

internalField   nonuniform List<scalar> 
160
(
980662.58
1066215.4
1019306.4
954763.78
887798.64
822312.13
758804.6
697330.32
637886.46
580470.03
525080.22
471717.68
420384.53
371085.11
323827.36
278625.37
235504.25
194510.04
155732.21
119361.32
85864.352
56645.604
36869.925
38122.188
56065.462
78143.74
100216.94
121155.98
140571.54
158301.06
174266.93
188426.8
200749.52
211193.07
219695.31
226450.01
235103.99
269999.12
506405.6
1430963
411716.34
408955.52
382636.9
357674.44
334910.77
313342.98
292613.8
272636.92
253401
234912.28
217182.14
200225.24
184059.81
168708.39
154199
140566.35
127853.36
116112.54
105407.02
95810.368
87403.833
80269.153
74475.227
70058.659
67002.32
65220.53
64559.708
64816.425
65765.224
67185.005
68876.858
70671.812
72427.976
74005.878
75164.401
75177.2
72032.373
69131.482
153944.52
438845.82
411708.26
408946.08
382626.98
357664.34
334900.57
313332.72
292603.53
272626.66
253390.8
234902.18
217172.19
200215.49
184050.28
168699.15
154190.08
140557.8
127845.21
116104.84
105399.81
95803.693
87397.735
80263.67
74470.386
70054.47
66998.774
65217.604
64557.372
64814.626
65763.84
67183.926
68876.172
70671.934
72429.374
74008.39
75167.102
75179.115
72033.525
69133.846
153948.12
438846.38
980654.07
1066205.9
1019296.3
954753.45
887788.17
822301.59
758794.04
697319.77
637875.97
580459.65
525069.97
471707.6
420374.66
371075.48
323818
278616.3
235495.48
194501.58
155724.05
119353.44
85856.704
56638.252
36863.997
38120.603
56066.57
78145.711
100219.14
121158.21
140573.79
158303.44
174269.58
188429.77
200752.78
211196.42
219698.56
226453.01
235106.41
270000.52
506405.72
1430963.8
)
;

boundaryField
{
    left
    {
        type            calculated;
        value           nonuniform List<scalar> 4(1156539.8 332249.93 332242.51 1156530.3);
    }
    right
    {
        type            calculated;
        value           nonuniform List<scalar> 4(1706214.4 580667.27 580664.08 1706215.4);
    }
    top
    {
        type            calculated;
        value           nonuniform List<scalar> 
40
(
1214757.5
1408224.3
1349087.4
1266872.6
1178222.5
1090987.6
1006253
924197.3
844831.86
768152.33
694153.88
622831.81
554181.24
488196.91
424873.23
364204.26
306183.76
250805.19
198061.9
147947.26
100455.59
55586.437
13428.52
26506.42
63558.22
98067.76
130014.28
159402.72
186241.52
210540.04
232306.83
251547.68
268263.07
282450.49
294217.4
304701.83
323576.47
395814.37
846492.86
1731265.7
)
;
    }
    bottom
    {
        type            calculated;
        value           nonuniform List<scalar> 
40
(
1214765.1
1408233.3
1349097
1266882.6
1178232.6
1090997.9
1006263.2
924207.48
844841.96
768162.31
694163.68
622841.41
554190.58
488205.97
424881.97
364212.65
306191.76
250812.79
198069.06
147953.98
100461.84
55592.213
13433.76
26501.598
63553.835
98063.805
130010.73
159399.48
186238.35
210536.63
232303.07
251543.89
268259.66
282447.5
294214.37
304698.26
323572.81
395811.81
846491.79
1731265
)
;
    }
    frontAndBack
    {
        type            empty;
    }
}


// ************************************************************************* //
