/*--------------------------------*- C++ -*----------------------------------*\
| =========                 |                                                 |
| \\      /  F ield         | OpenFOAM: The Open Source CFD Toolbox           |
|  \\    /   O peration     | Version:  2512                                  |
|   \\  /    A nd           | Website:  www.openfoam.com                      |
|    \\/     M anipulation  |                                                 |
\*---------------------------------------------------------------------------*/
FoamFile
{
    version     2.0;
    format      ascii;
    arch        "LSB;label=32;scalar=64";
    class       volScalarField;
    location    "0.8";
    object      sigmaHyd;
}
// * * * * * * * * * * * * * * * * * * * * * * * * * * * * * * * * * * * * * //

dimensions      [1 -1 -2 0 0 0 0];

internalField   nonuniform List<scalar> 
160
(
-373735.66
-398661.77
-373185.39
-349423.29
-324847.64
-300801.51
-277447.69
-254829.29
-232951.17
-211813.08
-191413.91
-171752.44
-152827.31
-134637.08
-117180.19
-100455
-84459.762
-69192.635
-54651.698
-40834.95
-27740.31
-15365.633
-3708.7076
7232.7363
17461.023
26978.526
35787.677
43890.983
51291.074
57990.65
63992.26
69298.095
73910.416
77836.668
81129.098
84075.079
88633.632
99443.149
171545.24
6978.7253
-172609.37
-134880.57
-124790.68
-116465.14
-108335.77
-100342.67
-92564.63
-85026.411
-77733.82
-70687.679
-63887.8
-57333.798
-51025.227
-44961.607
-39142.421
-33567.119
-28235.121
-23145.815
-18298.562
-13692.693
-9327.5176
-5202.321
-1316.3674
2331.0981
5740.8478
8913.6691
11850.368
14551.77
17018.734
19252.148
21252.9
23022.003
24561.653
25881.995
27033.682
28242.681
30217.039
34148.771
24513.979
-101297.02
172604.91
134876.64
124786.88
116461.35
108331.96
100338.86
92560.82
85022.621
77730.067
70683.98
63884.172
57330.255
51021.784
44958.275
39139.211
33564.043
28232.188
23143.033
18295.939
13690.237
9325.2343
5200.2151
1314.4406
-2332.8477
-5742.4291
-8915.1024
-11851.696
-14553.076
-17020.126
-19253.699
-21254.559
-23023.565
-24562.955
-25883.092
-27034.846
-28244.108
-30218.553
-34150.066
-24514.939
101295.95
373732.34
398658.2
373181.75
349419.58
324843.89
300797.74
277443.92
254825.53
232947.45
211809.41
191410.31
171748.92
152823.88
134633.76
117176.99
100451.93
84456.83
69189.852
54649.074
40832.491
27738.023
15363.521
3706.7719
-7234.4987
-17462.62
-26979.971
-35788.993
-43892.231
-51292.351
-57992.042
-63993.749
-69299.509
-73911.628
-77837.733
-81130.26
-84076.528
-88635.141
-99444.259
-171545.81
-6978.7029
)
;

boundaryField
{
    left
    {
        type            zeroGradient;
    }
    right
    {
        type            zeroGradient;
    }
    top
    {
        type            zeroGradient;
    }
    bottom
    {
        type            zeroGradient;
    }
    frontAndBack
    {
        type            empty;
    }
}


// ************************************************************************* //
