/*--------------------------------*- C++ -*----------------------------------*\
| =========                 |                                                 |
| \\      /  F ield         | OpenFOAM: The Open Source CFD Toolbox           |
|  \\    /   O peration     | Version:  2512                                  |
|   \\  /    A nd           | Website:  www.openfoam.com                      |
|    \\/     M anipulation  |                                                 |
\*---------------------------------------------------------------------------*/
FoamFile
{
    version     2.0;
    format      ascii;
    arch        "LSB;label=32;scalar=64";
    class       surfaceSymmTensorField;
    location    "0.8";
    object      sigmaf;
}
// * * * * * * * * * * * * * * * * * * * * * * * * * * * * * * * * * * * * * //

dimensions      [1 -1 -2 0 0 0 0];

internalField   nonuniform List<symmTensor> 
276
(
(-1254023.6 -38419.316 0 -38800.666 0 -298344.06)
(-851608.87 -125705.25 0 -20508.922 0 -201257.95)
(-1167922 -42174.275 0 -3239.8306 0 -270268.11)
(-804407.18 -86203.516 0 5710.3264 0 -184314.66)
(-1089035.8 -43945.218 0 -57.565623 0 -251329.23)
(-752453.06 -79055.273 0 3729.9129 0 -172782.26)
(-1013340.2 -43526.901 0 225.00283 0 -233795.81)
(-701052.61 -75931.12 0 1541.0015 0 -161425.76)
(-939940.18 -42473.331 0 151.01858 0 -216874.42)
(-651255.21 -73701.729 0 905.47209 0 -150080.71)
(-868756.16 -41273.005 0 117.56077 0 -200455.06)
(-603012.41 -71550.95 0 758.02163 0 -138981.78)
(-799789.62 -40044.48 0 107.69113 0 -184541.98)
(-556279.25 -69397.863 0 729.20012 0 -128203.86)
(-733043.96 -38811.351 0 105.56097 0 -169139.63)
(-511036.85 -67240.104 0 723.62762 0 -117764.59)
(-668518.79 -37577.662 0 105.39956 0 -154249.24)
(-467278.29 -65081.569 0 722.22058 0 -107666.78)
(-606211.55 -36344.286 0 105.76916 0 -139870.56)
(-425000.22 -62924.002 0 721.32884 0 -97910.514)
(-546119.03 -35111.24 0 106.28006 0 -126002.94)
(-384199.96 -60768.136 0 720.61361 0 -88495.234)
(-488237.34 -33878.755 0 106.88563 0 -112645.49)
(-344874.99 -58614.273 0 719.74747 0 -79420.441)
(-432562.42 -32646.714 0 107.52729 0 -99797.282)
(-307022.53 -56462.658 0 718.95421 0 -70685.441)
(-379089.68 -31415.336 0 108.23161 0 -87457.256)
(-270639.75 -54313.447 0 717.97099 0 -62289.642)
(-327814.42 -30184.476 0 108.96215 0 -75624.337)
(-235723.47 -52166.835 0 717.06624 0 -54232.247)
(-278731.47 -28954.361 0 109.74742 0 -64297.321)
(-202270.48 -50022.955 0 715.96091 0 -46512.581)
(-231835.55 -27724.829 0 110.55616 0 -53474.998)
(-170277.21 -47881.983 0 714.94895 0 -39129.752)
(-187120.93 -26496.118 0 111.4135 0 -43156.042)
(-139740.07 -45744.042 0 713.73186 0 -32083.002)
(-144581.82 -25268.047 0 112.29215 0 -33339.121)
(-110655.15 -43609.287 0 712.62395 0 -25371.352)
(-104212.02 -24040.86 0 113.21309 0 -24022.803)
(-83018.538 -41477.825 0 711.30902 0 -18993.976)
(-66005.284 -22814.362 0 114.15297 0 -15205.646)
(-56825.989 -39349.792 0 710.11803 0 -12949.816)
(-29955.004 -21588.804 0 115.12842 0 -6886.1252)
(-32073.317 -37225.281 0 708.71901 0 -7237.9842)
(3945.4797 -20363.981 0 116.1201 0 937.29227)
(-8756.0056 -35104.41 0 707.45583 0 -1857.3576)
(35703.105 -19140.154 0 117.14038 0 8266.2105)
(13130.374 -32987.266 0 705.98348 0 3193.0057)
(65324.885 -17917.117 0 118.17517 0 15102.245)
(33590.571 -30873.96 0 704.65198 0 7914.2822)
(92818.08 -16695.148 0 119.23058 0 21447.072)
(52629.23 -28764.596 0 703.11121 0 12307.463)
(118190.08 -15474.117 0 120.30568 0 27302.396)
(70251.315 -26659.333 0 701.68633 0 16373.77)
(141448.59 -14254.377 0 121.41321 0 32670)
(86461.729 -24558.368 0 700.09368 0 20114.267)
(162601.48 -13035.93 0 122.66358 0 37551.725)
(101265.6 -22461.91 0 698.6211 0 23530.204)
(181656.76 -11818.875 0 124.42552 0 41949.505)
(114667.79 -20369.982 0 697.39093 0 26622.734)
(198622.47 -10603.217 0 127.91007 0 45865.473)
(126672.54 -18282.677 0 697.09898 0 29392.993)
(213508.46 -9390.8211 0 137.52778 0 49302.921)
(137282.27 -16201.62 0 699.32516 0 31841.907)
(226331.93 -8190.9777 0 169.8803 0 52269.649)
(146494.89 -14134.558 0 710.73197 0 33970.528)
(237136.41 -7047.7747 0 286.91421 0 54789.998)
(154294.32 -12106.898 0 764.24539 0 35782.745)
(246031.6 -6177.7839 0 690.49556 0 56935.868)
(160616.06 -10185.959 0 1032.794 0 37303.581)
(253246.13 -6624.1015 0 1705.3778 0 58834.964)
(165235.45 -8489.4999 0 2344.3263 0 38672.257)
(258661.29 -12926.577 0 2342.0035 0 60231.529)
(167460.33 -6670.2941 0 8196.5509 0 40536.203)
(258253.49 -39821.751 0 -23497.344 0 54174.494)
(166081.54 -822.82149 0 28780.546 0 44968.174)
(212277.76 -114672.24 0 -187303.22 0 5763.3559)
(162045.15 44780.44 0 76658.346 0 55085.423)
(218522.62 211181.57 0 -113839.93 0 24157.544)
(-423721.17 -110647.64 0 -6614.0989 0 -99308.14)
(-5.6127192 -118276.41 0 -0.67286054 0 -1.4505184)
(-393047.3 -102938.39 0 1211.3297 0 -90423.686)
(-5.8890589 -116875.89 0 0.015368807 0 -1.3554669)
(-364625.7 -97209.673 0 943.93917 0 -83926.561)
(-5.9336566 -107476.51 0 0.21198159 0 -1.3203865)
(-338586.64 -93670.214 0 459.71266 0 -78029.291)
(-5.9526749 -101970.02 0 0.21000328 0 -1.3252319)
(-313894.03 -90767.122 0 318.72937 0 -72363.532)
(-5.9555656 -98394.058 0 0.21818178 0 -1.3240116)
(-290106.36 -88012.522 0 287.76404 0 -66881.214)
(-5.9637212 -95338.301 0 0.18747562 0 -1.3329798)
(-267101.25 -85288.135 0 282.52693 0 -61573.551)
(-5.9445678 -92402.491 0 0.20566361 0 -1.3243625)
(-244847.63 -82570.844 0 281.78876 0 -56438.271)
(-5.9182188 -89493.171 0 0.18284031 0 -1.3235489)
(-223337.11 -79856.81 0 281.61549 0 -51474.345)
(-5.854514 -86591.385 0 0.21101735 0 -1.3023454)
(-202566.77 -77145.608 0 281.42955 0 -46681.233)
(-5.7812465 -83693.566 0 0.18961252 0 -1.2903771)
(-182534.83 -74437.38 0 281.20985 0 -42058.527)
(-5.6683121 -80799.158 0 0.22186335 0 -1.2568728)
(-163239.88 -71732.341 0 280.95193 0 -37605.907)
(-5.5485285 -77908.228 0 0.19614711 0 -1.2351649)
(-144680.43 -69030.739 0 280.67628 0 -33323.019)
(-5.3895964 -75020.983 0 0.2277365 0 -1.1911984)
(-126855.01 -66332.805 0 280.37211 0 -29209.532)
(-5.2280483 -72137.674 0 0.19460597 0 -1.1615636)
(-109761.97 -63638.78 0 280.05318 0 -25265.058)
(-5.0287337 -69258.557 0 0.22370132 0 -1.1088536)
(-93399.667 -60948.882 0 279.70924 0 -21489.221)
(-4.8312264 -66383.883 0 0.18318064 0 -1.0726259)
(-77766.267 -58263.335 0 279.35202 0 -17881.596)
(-4.5975565 -63513.897 0 0.21013506 0 -1.0124819)
(-62859.938 -55582.335 0 278.97332 0 -14441.761)
(-4.3698919 -60648.83 0 0.16371423 0 -0.97065638)
(-48678.688 -52906.082 0 278.58305 0 -11169.255)
(-4.1078414 -57788.901 0 0.18953819 0 -0.90422382)
(-35220.515 -50234.745 0 278.17514 0 -8063.6169)
(-3.8559481 -54934.314 0 0.13922747 0 -0.85770477)
(-22483.285 -47568.498 0 277.7574 0 -5124.3524)
(-3.5722419 -52085.258 0 0.16544987 0 -0.78618278)
(-10464.85 -44907.489 0 277.32552 0 -2350.9672)
(-3.3042801 -49241.912 0 0.11372882 0 -0.73628108)
(837.04275 -42251.871 0 276.88497 0 257.06024)
(-3.0107571 -46404.442 0 0.14195993 0 -0.66203012)
(11424.663 -39601.777 0 276.43238 0 2700.2529)
(-2.7454989 -43573.004 0 0.091108779 0 -0.61255156)
(21300.363 -36957.357 0 275.97002 0 4979.1538)
(-2.4714308 -40747.754 0 0.12544626 0 -0.54138105)
(30466.517 -34318.766 0 275.48184 0 7094.3074)
(-2.2505202 -37928.855 0 0.079471844 0 -0.50101117)
(38925.552 -31686.203 0 274.95208 0 9046.2702)
(-2.0455047 -35116.495 0 0.10477258 0 -0.44786127)
(46679.879 -29059.891 0 274.31723 0 10835.584)
(-1.9085831 -32310.867 0 -0.01198779 0 -0.44320867)
(53731.679 -26439.742 0 273.57068 0 12462.75)
(-1.8074676 -29511.943 0 -0.20637399 0 -0.46473267)
(60082.372 -23825.01 0 272.70981 0 13928.096)
(-1.7951855 -26718.96 0 -0.6032817 0 -0.55349244)
(65731.045 -21213.915 0 271.67528 0 15231.397)
(-1.8552383 -23929.707 0 -0.89069738 0 -0.63367745)
(70670.163 -18603.446 0 270.36585 0 16370.891)
(-1.9813344 -21139.098 0 -0.79421174 0 -0.64051064)
(74870.824 -15985.344 0 271.24612 0 17340.478)
(-2.0583238 -18333.563 0 -0.059079669 0 -0.48863157)
(78229.551 -13319.572 0 300.44783 0 18122.308)
(-2.0667415 -15463.942 0 0.60185448 0 -0.33805084)
(80365.277 -10392.614 0 515.37142 0 18664.765)
(-1.9463625 -12319.874 0 0.59584919 0 -0.31165691)
(79850.409 -6160.5762 0 1638.0753 0 18805.035)
(-1.6984271 -7972.8456 0 -0.20461935 0 -0.43916455)
(71672.249 3919.2011 0 5729.9367 0 17862.043)
(-1.3270484 1509.086 0 -1.0347001 0 -0.54501889)
(40769.043 34577.59 0 13980.597 0 12634.532)
(-1.0343022 30077.231 0 -1.1610455 0 -0.5066187)
(-28029.862 113102.59 0 -46247.276 0 -17140.878)
(-0.71986759 113552.41 0 -0.71308875 0 -0.33068223)
(-0.19306177 183060.36 0 -0.91847023 0 -0.25650739)
(423709.37 -110647.32 0 6613.3944 0 99305.253)
(851597.84 -125704.31 0 20507.992 0 201255.19)
(393035.34 -102938.07 0 -1211.2777 0 90420.937)
(804395.97 -86202.954 0 -5710.3085 0 184312.08)
(364613.77 -97209.213 0 -943.6954 0 83923.863)
(752441.69 -79054.475 0 -3729.6864 0 172779.69)
(338574.66 -93669.57 0 -459.45937 0 78026.585)
(701041.12 -75930.004 0 -1540.7644 0 161423.16)
(313882.08 -90766.332 0 -318.47233 0 72360.833)
(651243.65 -73700.274 0 -905.23448 0 150078.1)
(290094.38 -88011.568 0 -287.52229 0 66878.505)
(603000.82 -71549.205 0 -757.79421 0 138979.16)
(267089.35 -85287.057 0 -282.27521 0 61570.863)
(556267.68 -69395.821 0 -728.96723 0 128201.24)
(244835.79 -82569.615 0 -281.54203 0 56435.595)
(511025.32 -67237.802 0 -723.4001 0 117761.98)
(223325.44 -79855.468 0 -281.35216 0 51471.711)
(467266.87 -65078.99 0 -721.98319 0 107664.2)
(202555.25 -77144.122 0 -281.16599 0 46678.635)
(424988.95 -62921.18 0 -721.0941 0 97907.967)
(182523.57 -74435.792 0 -280.92959 0 42055.994)
(384188.89 -60765.055 0 -720.36535 0 88492.736)
(163228.87 -71730.616 0 -280.67321 0 37603.431)
(344864.16 -58610.963 0 -719.50313 0 79417.999)
(144669.77 -69028.923 0 -280.38709 0 33320.627)
(307011.99 -56459.107 0 -718.69716 0 70683.069)
(126844.69 -66330.858 0 -280.09063 0 29207.215)
(270629.54 -54309.686 0 -717.72409 0 62287.342)
(109752.08 -63636.754 0 -279.76981 0 25262.84)
(235713.63 -52162.853 0 -716.81068 0 54230.035)
(93390.183 -60946.735 0 -279.44008 0 21487.095)
(202261.04 -50018.782 0 -715.72343 0 46510.457)
(77757.268 -58261.122 0 -279.08858 0 17879.58)
(170268.2 -47877.613 0 -714.70705 0 39127.729)
(62851.414 -55580.011 0 -278.72864 0 14439.85)
(139731.53 -45739.503 0 -713.51496 0 32081.08)
(48670.697 -52903.705 0 -278.34919 0 11167.465)
(110647.1 -43604.575 0 -712.40533 0 25369.544)
(35213.049 -50232.268 0 -277.96132 0 8061.9432)
(83010.991 -41472.968 0 -711.11979 0 18992.278)
(22476.388 -47565.983 0 -277.55588 0 5122.8074)
(56818.976 -39344.79 0 -709.92693 0 12948.242)
(10458.509 -44904.887 0 -277.14187 0 2349.5461)
(32066.841 -37220.16 0 -708.55909 0 7236.5265)
(-842.80785 -42249.246 0 -276.7121 0 -258.35076)
(8750.0801 -35099.174 0 -707.29254 0 1856.0279)
(-11429.889 -39599.077 0 -276.27101 0 -2701.4216)
(-13135.77 -32981.937 0 -705.85324 0 -3194.2207)
(-21305.078 -36954.645 0 -275.81471 0 -4980.2061)
(-33595.451 -30868.544 0 -704.51155 0 -7915.376)
(-30470.813 -34315.992 0 -275.35037 0 -7095.2685)
(-52633.66 -28759.111 0 -703.0082 0 -12308.462)
(-38929.514 -31683.442 0 -274.91807 0 -9047.1766)
(-70255.356 -26653.797 0 -701.59538 0 -16374.681)
(-46683.607 -29057.132 0 -274.58412 0 -10836.506)
(-86465.506 -24552.836 0 -700.19762 0 -20115.162)
(-53735.245 -26437.055 0 -274.34327 0 -12463.751)
(-101269.25 -22456.413 0 -699.13507 0 -23531.167)
(-60085.873 -23822.328 0 -273.97322 0 -13929.195)
(-114671.47 -20364.523 0 -698.43289 0 -26623.824)
(-65734.648 -21211.169 0 -272.91798 0 -15232.515)
(-126676.33 -18277.167 0 -698.35397 0 -29394.158)
(-70674.031 -18600.526 0 -270.78284 0 -16371.88)
(-137286.11 -16195.985 0 -699.93972 0 -31842.935)
(-74875.048 -15982.447 0 -270.59512 0 -17341.302)
(-146498.77 -14128.878 0 -710.1785 0 -33971.296)
(-78233.831 -13316.866 0 -299.48045 0 -18123.072)
(-154298.24 -12101.432 0 -763.02642 0 -35783.368)
(-80369.19 -10390.181 0 -515.31034 0 -18665.654)
(-160619.99 -10180.8 0 -1032.1694 0 -37304.345)
(-79853.416 -6158.2779 0 -1639.3771 0 -18806.029)
(-165239.31 -8484.6006 0 -2345.319 0 -38673.375)
(-71674.246 3921.5224 0 -5731.762 0 -17862.925)
(-167463.66 -6665.4985 0 -8198.6487 0 -40537.456)
(-40770.765 34579.913 0 -13982.022 0 -12635.258)
(-166083.94 -818.19841 0 -28782.098 0 -44969.086)
(28028.809 113104.51 0 46246.197 0 17140.386)
(-162046.67 44784.744 0 -76658.91 0 -55085.904)
(-218523.09 211184.49 0 113839.56 0 -24157.738)
(1254013 -38419.057 0 38800.278 0 298341.52)
(1167911.3 -42174.008 0 3239.9059 0 270265.66)
(1089024.8 -43944.782 0 57.724792 0 251326.73)
(1013329.1 -43526.258 0 -224.81517 0 233793.3)
(939928.96 -42472.542 0 -150.84729 0 216871.87)
(868744.94 -41272.049 0 -117.38031 0 200452.51)
(799778.38 -40043.404 0 -107.52603 0 184539.43)
(733032.83 -38810.12 0 -105.38413 0 169137.1)
(668507.74 -37576.323 0 -105.23489 0 154246.73)
(606200.69 -36342.797 0 -105.59156 0 139868.1)
(546108.35 -35109.655 0 -106.11319 0 126000.52)
(488226.94 -33877.026 0 -106.70736 0 112643.13)
(432552.29 -32644.901 0 -107.36069 0 99794.983)
(379079.91 -31413.385 0 -108.05742 0 87455.044)
(327805 -30182.454 0 -108.80174 0 75622.2)
(278722.48 -28952.21 0 -109.58384 0 64295.284)
(231826.96 -27722.621 0 -110.40816 0 53473.051)
(187112.83 -26493.789 0 -111.26618 0 43154.207)
(144574.18 -25265.675 0 -112.16104 0 33337.389)
(104204.91 -24038.378 0 -113.08508 0 24021.191)
(65998.673 -22811.853 0 -114.04021 0 15204.146)
(29948.937 -21586.197 0 -115.01961 0 6884.7503)
(-3951.0362 -20361.364 0 -116.02477 0 -938.55252)
(-35708.138 -19137.447 0 -117.04801 0 -8267.3507)
(-65329.454 -17914.413 0 -118.09581 0 -15103.281)
(-92822.214 -16692.36 0 -119.16562 0 -21448.011)
(-118193.89 -15471.371 0 -120.3029 0 -27303.275)
(-141452.19 -14251.657 0 -121.55794 0 -32670.864)
(-162605.07 -13033.306 0 -123.03306 0 -37552.639)
(-181660.47 -11816.22 0 -124.9579 0 -41950.484)
(-198626.36 -10600.368 0 -128.34619 0 -45866.471)
(-213512.36 -9387.7278 0 -137.53816 0 -49303.823)
(-226335.96 -8188.0042 0 -169.53022 0 -52270.498)
(-237140.31 -7045.1791 0 -286.53652 0 -54790.812)
(-246035.64 -6175.6121 0 -690.66845 0 -56936.84)
(-253250.07 -6621.9539 0 -1706.1946 0 -58836.061)
(-258664.62 -12924.075 0 -2342.9703 0 -60232.521)
(-258255.61 -39819.198 0 23496.772 0 -54175.116)
(-212279.31 -114670.22 0 187302.82 0 -5763.8045)
)
;

boundaryField
{
    left
    {
        type            calculated;
        value           nonuniform List<symmTensor> 4((-1379692.4 -60855.154 0 -136076.41 0 -349792.8) (-416302.19 -92139.999 0 -124890.66 0 -124890.66) (416291.14 -92139.222 0 124887.34 0 124887.34) (1379681.2 -60853.91 0 136075.38 0 349789.98));
    }
    right
    {
        type            calculated;
        value           nonuniform List<symmTensor> 4((-98.737601 771.7713 0 -1881430.6 0 -434199.07) (-33.245248 1154.5175 0 -640293.81 0 -147767.78) (33.247145 1154.5088 0 640290.28 0 147766.97) (98.73698 771.76172 0 1881431.7 0 434199.33));
    }
    top
    {
        type            calculated;
        value           nonuniform List<symmTensor> 
40
(
(1339472.1 -55.058019 0 30.408912 0 309115.96)
(1552804 -105.51677 0 38.432852 0 358348.25)
(1487597.8 -168.39599 0 39.496432 0 343300.92)
(1396944 -234.41896 0 39.489771 0 322380.8)
(1299193.9 -300.32702 0 39.113527 0 299823.01)
(1203004.3 -365.50958 0 38.596024 0 277625.29)
(1109571.4 -429.73148 0 37.97185 0 256063.69)
(1019092.3 -492.82064 0 37.247622 0 235183.75)
(931579.55 -554.61227 0 36.425599 0 214988.3)
(847028.23 -614.94454 0 35.507912 0 195476.25)
(765433.06 -673.65911 0 34.496955 0 176646.36)
(686788.86 -730.60179 0 33.395378 0 158497.44)
(611090.2 -785.62304 0 32.206071 0 141028.25)
(538331.28 -838.57832 0 30.932155 0 124237.43)
(468505.89 -889.32851 0 29.576972 0 108123.57)
(401607.42 -937.74028 0 28.144079 0 92685.131)
(337628.89 -983.68642 0 26.637236 0 77920.506)
(276562.93 -1027.0462 0 25.060403 0 63827.998)
(218401.85 -1067.7057 0 23.417721 0 50405.831)
(163137.62 -1105.5581 0 21.713507 0 37652.154)
(110761.93 -1140.5039 0 19.952239 0 25565.049)
(61266.165 -1172.4512 0 18.138545 0 14142.532)
(14641.472 -1201.3162 0 16.277193 0 3382.5575)
(-29121.249 -1227.023 0 14.373077 0 -6716.9713)
(-70031.311 -1249.5039 0 12.431207 0 -16158.203)
(-108098.22 -1268.6997 0 10.456698 0 -24943.33)
(-143331.72 -1284.5596 0 8.4547858 0 -33074.599)
(-175741.96 -1297.0416 0 6.4309282 0 -40554.352)
(-205339.63 -1306.1135 0 4.3908641 0 -47385.055)
(-232135.6 -1311.7541 0 2.3404246 0 -53569.215)
(-256139.58 -1313.9536 0 0.28494249 0 -59109.069)
(-277358.07 -1312.7101 0 -1.7712025 0 -64006.118)
(-295791.7 -1308.0265 0 -3.8239624 0 -68260.505)
(-311437.73 -1299.9136 0 -5.868076 0 -71871.599)
(-324414.7 -1288.4021 0 -7.902316 0 -74866.754)
(-335977.55 -1273.4767 0 -9.9839284 0 -77535.585)
(-356792.57 -1254.3893 0 -12.6692 0 -82339.67)
(-436452.02 -1223.7408 0 -18.57592 0 -100723.98)
(-933417.47 -1147.213 0 -46.627627 0 -215414.79)
(-1909054.3 -764.25178 0 -100.02546 0 -440574.08)
)
;
    }
    bottom
    {
        type            calculated;
        value           nonuniform List<symmTensor> 
40
(
(-1339480.4 -55.05204 0 -30.404445 0 -309117.88)
(-1552813.9 -105.51445 0 -38.427531 0 -358350.53)
(-1487608.4 -168.39537 0 -39.49074 0 -343303.36)
(-1396955 -234.41881 0 -39.483853 0 -322383.34)
(-1299205.1 -300.32699 0 -39.107509 0 -299825.59)
(-1203015.6 -365.50958 0 -38.589966 0 -277627.89)
(-1109582.6 -429.73152 0 -37.965787 0 -256066.29)
(-1019103.6 -492.82072 0 -37.241582 0 -235186.34)
(-931590.68 -554.6124 0 -36.419609 0 -214990.87)
(-847039.23 -614.94471 0 -35.501999 0 -195478.78)
(-765443.87 -673.65933 0 -34.491142 0 -176648.85)
(-686799.43 -730.60207 0 -33.38969 0 -158499.88)
(-611100.49 -785.62338 0 -32.200532 0 -141030.62)
(-538341.26 -838.5787 0 -30.926786 0 -124239.73)
(-468515.52 -889.32894 0 -29.571793 0 -108125.79)
(-401616.66 -937.74075 0 -28.139107 0 -92687.262)
(-337637.71 -983.68694 0 -26.632491 0 -77922.54)
(-276571.3 -1027.0468 0 -25.055898 0 -63829.929)
(-218409.75 -1067.7063 0 -23.413471 0 -50407.653)
(-163145.03 -1105.5587 0 -21.709523 0 -37653.863)
(-110768.82 -1140.5045 0 -19.948531 0 -25566.639)
(-61272.536 -1172.4519 0 -18.135118 0 -14144.001)
(-14647.318 -1201.3169 0 -16.274048 0 -3383.9058)
(29115.917 -1227.0236 0 -14.370208 0 6715.7415)
(70026.476 -1249.5044 0 -12.428606 0 16157.088)
(108093.86 -1268.7002 0 -10.454352 0 24942.324)
(143327.81 -1284.5602 0 -8.4526832 0 33073.698)
(175738.38 -1297.0427 0 -6.4290049 0 40553.527)
(205336.13 -1306.1149 0 -4.3889799 0 47384.248)
(232131.84 -1311.7552 0 -2.3384016 0 53568.347)
(256135.43 -1313.9532 0 -0.28271108 0 59108.112)
(277353.9 -1312.7077 0 1.7734465 0 64005.155)
(295787.94 -1308.0237 0 3.8259854 0 68259.638)
(311434.43 -1299.913 0 5.8698491 0 71870.839)
(324411.36 -1288.4049 0 7.9041134 0 74865.984)
(335973.62 -1273.4808 0 9.9860441 0 77534.678)
(356788.53 -1254.3914 0 12.671371 0 82338.74)
(436449.19 -1223.7402 0 18.577439 0 100723.33)
(933416.29 -1147.2127 0 46.628262 0 215414.52)
(1909053.5 -764.25479 0 100.02587 0 440573.9)
)
;
    }
    frontAndBack
    {
        type            empty;
    }
}


// ************************************************************************* //
