/*--------------------------------*- C++ -*----------------------------------*\
| =========                 |                                                 |
| \\      /  F ield         | OpenFOAM: The Open Source CFD Toolbox           |
|  \\    /   O peration     | Version:  2512                                  |
|   \\  /    A nd           | Website:  www.openfoam.com                      |
|    \\/     M anipulation  |                                                 |
\*---------------------------------------------------------------------------*/
FoamFile
{
    version     2.0;
    format      ascii;
    arch        "LSB;label=32;scalar=64";
    class       volSymmTensorField;
    location    "0.8";
    object      sigma;
}
// * * * * * * * * * * * * * * * * * * * * * * * * * * * * * * * * * * * * * //

dimensions      [1 -1 -2 0 0 0 0];

internalField   nonuniform List<symmTensor> 
160
(
(-1012850.1 -14747.237 -3.9768299e-11 64136.51 -9.9420747e-12 -172493.38)
(-1091275.7 -42697.624 0 79288.1 -1.5907319e-10 -183997.74)
(-1034227.3 -42502.87 0 86910.561 3.1814639e-10 -172239.41)
(-968371.53 -42614.097 1.5907319e-10 81373.953 1.5907319e-10 -161272.29)
(-900206.69 -41654.641 -1.5907319e-10 75593.449 -6.3629278e-10 -149929.68)
(-833540.63 -40516.604 0 69967.565 0 -138831.47)
(-768848.65 -39334.454 6.3629278e-10 64558.371 0 -128052.78)
(-706208.26 -38144.802 -6.3629278e-10 59333.917 0 -117613.52)
(-645621.58 -36953.917 -3.1814639e-10 54283.993 0 -107515.92)
(-587084.96 -35763.041 -3.1814639e-10 49405.607 -1.2725856e-09 -97759.882)
(-530594.75 -34572.442 -6.3629278e-10 44697.894 1.2725856e-09 -88344.884)
(-476147.41 -33382.217 0 40160.441 -2.5451711e-09 -79270.358)
(-423739.16 -32192.415 3.1814639e-10 35792.909 2.5451711e-09 -70535.683)
(-373366.01 -31003.08 1.9088783e-09 31594.958 2.5451711e-09 -62140.191)
(-325023.64 -29814.242 -6.3629278e-10 27566.227 2.290654e-08 -54083.166)
(-278707.5 -28625.937 1.2725856e-09 23706.336 5.0903422e-09 -46363.847)
(-234412.74 -27438.193 -1.2725856e-09 20014.882 -1.5271027e-08 -38981.429)
(-192134.29 -26251.04 6.3629278e-10 16491.442 0 -31935.062)
(-151866.81 -25064.503 -6.3629278e-10 13135.574 -2.0361369e-08 -25223.861)
(-113604.76 -23878.609 6.3629278e-10 9946.8148 1.0180684e-08 -18846.9)
(-77342.397 -22693.379 -6.3629278e-10 6924.6871 -1.0180684e-08 -12803.22)
(-43073.765 -21508.837 -1.2725856e-09 4068.6952 1.5271027e-08 -7091.8308)
(-10792.741 -20325.002 1.2725856e-09 1378.3295 -5.0903422e-09 -1711.7112)
(19506.958 -19141.899 0 -1146.9352 -2.0361369e-08 3338.186)
(47831.772 -17959.552 6.3629278e-10 -3507.6359 1.0180684e-08 8058.9339)
(74188.279 -16777.996 -1.9088783e-09 -5704.3278 -5.0903422e-09 12451.627)
(98583.218 -15597.298 -6.3629278e-10 -7737.5766 -2.5451711e-08 16517.389)
(121023.53 -14417.561 1.2725856e-09 -9607.9621 -1.0180684e-08 20257.377)
(141516.44 -13238.931 0 -11316.021 -1.0180684e-08 23672.803)
(160069.19 -12061.437 0 -12862.155 0 26764.915)
(176688.32 -10885.08 -6.3629278e-10 -14246.432 0 29534.889)
(191378.29 -9710.5495 0 -15467.742 -2.0361369e-08 31983.736)
(204138.83 -8541.7951 3.1814639e-10 -16520.081 1.0180684e-08 34112.5)
(214962.2 -7394.9214 6.3629278e-10 -17376.81 -2.0361369e-08 35924.616)
(223873.12 -6340.886 9.5443917e-10 -17930.029 -2.0361369e-08 37444.199)
(231304.95 -5688.4975 3.1814639e-10 -17883.596 -2.0361369e-08 38803.883)
(241594.79 -7067.8164 3.1814639e-10 -16601.726 -1.0180684e-08 40907.83)
(274316.45 -14689.514 -1.2725856e-09 -21883.844 0 45896.838)
(491655.48 -63624.539 0 -56194.481 -3.0542053e-08 79174.727)
(834643.31 24881.68 3.1814639e-10 -816928.08 4.0722738e-08 3220.9501)
(-404843.41 -124567.06 -4.9710373e-11 -33318.843 0 -79665.863)
(-372301.1 -106528.16 -1.3918905e-10 29911.958 -3.1814639e-10 -62252.571)
(-347433.4 -98382.883 -3.5791469e-10 30657.06 -1.5907319e-10 -57595.699)
(-323568.88 -93844.568 -1.193049e-10 27926.613 -4.7721958e-10 -53753.139)
(-300590.69 -90766.985 -3.9768299e-10 25584.509 -1.5907319e-09 -50001.124)
(-278329.63 -88011.503 -7.9536597e-10 23613.617 6.3629278e-10 -46312.002)
(-256762.14 -85322.105 -6.3629278e-10 21790.391 0 -42722.137)
(-235881.38 -82645.487 -4.7721958e-10 20045.11 6.3629278e-10 -39242.959)
(-215685.17 -79972.805 -2.3860979e-10 18360.863 3.8177567e-09 -35877.148)
(-196172.18 -77302.888 -1.2725856e-09 16734.229 -6.3629278e-09 -32625.082)
(-177341.25 -74635.768 -4.7721958e-10 15164.522 -1.2725856e-09 -29486.677)
(-159191.19 -71971.649 -4.7721958e-10 13651.545 -5.0903422e-09 -26461.753)
(-141720.75 -69310.759 -3.1814639e-10 12195.172 -7.6355133e-09 -23550.105)
(-124928.6 -66653.335 -7.9536597e-10 10795.289 -2.5451711e-09 -20751.511)
(-108813.3 -63999.606 -7.9536597e-10 9451.7747 1.0180684e-08 -18065.733)
(-93373.345 -61349.799 -3.1814639e-10 8164.5041 2.5451711e-09 -15492.517)
(-78607.114 -58704.128 -1.1135124e-09 6933.3446 -1.7816198e-08 -13031.594)
(-64512.919 -56062.798 -1.2725856e-09 5758.1571 -2.5451711e-09 -10682.684)
(-51088.991 -53426.002 -7.9536597e-10 4638.7963 0 -8445.4899)
(-38333.485 -50793.919 -1.5907319e-10 3575.1106 2.0361369e-08 -6319.7044)
(-26244.487 -48166.719 -1.5907319e-10 2566.9428 1.0180684e-08 -4305.0081)
(-14820.022 -45544.558 -1.2725856e-09 1614.13 -5.0903422e-09 -2401.0712)
(-4058.0525 -42927.581 -6.3629278e-10 716.50452 -1.5271027e-08 -607.55418)
(6043.5094 -40315.93 -7.9536597e-10 -126.10643 -1.0180684e-08 1075.8914)
(15486.801 -37709.742 -1.2725856e-09 -913.88008 0 2649.622)
(24274.01 -35109.165 -7.9536597e-10 -1647.0035 -1.5271027e-08 4114.0011)
(32407.375 -32514.38 -1.4316588e-09 -2325.6712 0 5469.4006)
(39889.2 -29925.597 -3.1814639e-10 -2950.0906 5.0903422e-09 6716.2017)
(46721.825 -27342.899 -6.3629278e-10 -3520.4224 -4.0722738e-08 7854.8005)
(52907.513 -24765.889 -1.2725856e-09 -4036.6758 1.0180684e-08 8885.6068)
(58448.193 -22193.392 -1.4316588e-09 -4498.523 1.0180684e-08 9809.0309)
(63345.052 -19623.394 -1.2725856e-09 -4904.584 -1.0180684e-08 10625.54)
(67597.543 -17052.082 -3.1814639e-10 -5248.7308 -2.0361369e-08 11336.148)
(71200.457 -14464.241 -1.2725856e-09 -5500.0097 -1.0180684e-08 11945.536)
(74132.504 -11774.298 -7.9536597e-10 -5508.5429 0 12477.084)
(76316.052 -8522.3783 -4.7721958e-10 -4623.0932 2.0361369e-08 13035.083)
(77407.998 -2379.512 -6.3629278e-10 -703.20712 -2.0361369e-08 13946.326)
(76317.391 15878.866 -6.3629278e-10 10367.95 1.0180684e-08 15760.971)
(64793.815 81453.206 -4.7721958e-10 -2566.0226 -5.0903422e-08 11314.144)
(50430.098 172982.96 -1.1135124e-09 -307568.68 -1.0180684e-08 -46752.47)
(404833.05 -124566.5 -2.4855187e-12 33317.874 2.4855187e-11 79663.804)
(372290.44 -106527.87 1.193049e-10 -29911.282 1.5907319e-10 62250.755)
(347422.63 -98382.496 -3.9768299e-11 -30655.943 4.7721958e-10 57593.944)
(323558.06 -93844.014 -3.9768299e-11 -27925.411 7.9536597e-10 53751.39)
(300579.83 -90766.264 2.3860979e-10 -25583.307 -1.5907319e-09 49999.368)
(278318.76 -88010.629 -1.5907319e-10 -23612.424 6.3629278e-10 46310.242)
(256751.29 -85321.089 2.3860979e-10 -21789.205 0 42720.378)
(235870.58 -82644.334 1.5907319e-10 -20043.928 4.4540495e-09 39241.21)
(215674.47 -79971.52 0 -18359.685 -1.2725856e-09 35875.416)
(196161.62 -77301.475 0 -16733.057 -1.2725856e-09 32623.375)
(177330.87 -74634.232 3.1814639e-10 -15163.36 3.8177567e-09 29485.003)
(159181.04 -71969.992 4.7721958e-10 -13650.396 -6.3629278e-09 26460.118)
(141710.88 -69308.988 3.1814639e-10 -12194.044 2.5451711e-09 23548.516)
(124919.04 -66651.453 0 -10794.187 -5.0903422e-09 20749.973)
(108804.09 -63997.619 -1.1135124e-09 -9450.7063 2.5451711e-08 18064.251)
(93364.508 -61347.712 4.7721958e-10 -8163.4753 -5.0903422e-09 15491.097)
(78598.684 -58701.947 6.3629278e-10 -6932.3611 -7.6355133e-09 13030.24)
(64504.924 -56060.528 3.1814639e-10 -5757.2237 0 10681.4)
(51081.454 -53423.649 0 -4637.9171 -2.0361369e-08 8444.2795)
(38326.428 -50791.491 -6.3629278e-10 -3574.2885 5.0903422e-09 6318.5709)
(26237.928 -48164.222 0 -2566.1796 5.0903422e-09 4303.9543)
(14813.972 -45541.998 1.5907319e-10 -1613.4263 -5.0903422e-09 2400.0993)
(4052.5166 -42924.967 -1.5907319e-10 -715.85981 -5.0903422e-09 606.66487)
(-6048.5399 -40313.266 0 126.69568 -5.0903422e-09 -1076.699)
(-15491.355 -37707.036 -4.7721958e-10 914.4191 -2.5451711e-08 -2650.3519)
(-24278.137 -35106.422 -1.5907319e-10 1647.4921 -2.0361369e-08 -4114.6626)
(-32411.15 -32511.613 3.1814639e-10 2326.0747 -5.0903422e-08 -5470.0137)
(-39892.709 -29922.834 1.5907319e-10 2950.2859 0 -6716.8042)
(-46725.158 -27340.162 -6.3629278e-10 3520.2217 -2.0361369e-08 -7855.443)
(-52910.767 -24763.173 0 4035.9922 0 -8886.3228)
(-58451.493 -22190.642 -1.5907319e-10 4497.6133 -2.0361369e-08 -9809.7964)
(-63348.52 -19620.558 -3.1814639e-10 4904.0866 -3.0542053e-08 -10626.261)
(-67601.271 -17049.221 -1.5907319e-10 5249.1536 0 -11336.749)
(-71204.341 -14461.495 -1.5907319e-10 5501.1067 -3.0542053e-08 -11946.043)
(-74136.263 -11771.747 -1.5907319e-10 5509.3463 -1.0180684e-08 -12477.621)
(-76319.338 -8519.9776 -1.5907319e-10 4622.7556 -2.0361369e-08 -13035.742)
(-77410.518 -2377.1389 0 701.883 -1.0180684e-08 -13947.024)
(-76319.261 15881.223 1.5907319e-10 -10369.37 3.0542053e-08 -15761.569)
(-64795.167 81455.356 0 2564.9362 1.0180684e-08 -11314.587)
(-50430.666 172984.39 -1.5907319e-10 307566.54 1.0180684e-08 46751.977)
(1012841.2 -14746.945 9.9420747e-11 -64136.07 -8.9478672e-11 172491.85)
(1091265.9 -42697.388 3.1814639e-10 -79287.403 -3.1814639e-10 183996.09)
(1034217.2 -42502.517 5.5675618e-10 -86909.646 2.3860979e-10 172237.73)
(968361.14 -42613.553 1.5907319e-10 -81372.988 6.3629278e-10 161270.57)
(900196.18 -41653.923 7.9536597e-10 -75592.468 0 149927.95)
(833530.08 -40515.73 4.7721958e-10 -69966.58 6.3629278e-10 138829.73)
(768838.09 -39333.438 0 -64557.387 0 128051.04)
(706197.75 -38143.648 3.1814639e-10 -59332.936 -6.3629278e-10 117611.78)
(645611.16 -36952.632 9.5443917e-10 -54283.019 3.8177567e-09 107514.21)
(587074.67 -35761.627 4.1359031e-09 -49404.641 5.0903422e-09 97758.187)
(530584.65 -34570.905 -3.1814639e-10 -44696.941 0 88343.22)
(476137.52 -33380.56 1.9088783e-09 -40159.503 1.2725856e-09 79268.73)
(423729.54 -32190.644 6.3629278e-10 -35791.992 -2.5451711e-09 70534.099)
(373356.68 -31001.198 6.3629278e-10 -31594.066 2.5451711e-09 62138.657)
(325014.64 -29812.255 9.5443917e-10 -27565.364 2.5451711e-09 54081.687)
(278698.87 -28623.85 6.3629278e-10 -23705.506 1.0180684e-08 46362.429)
(234404.5 -27436.011 3.1814639e-09 -20014.088 -7.6355133e-09 38980.075)
(192126.47 -26248.769 1.2725856e-09 -16490.688 5.0903422e-09 31933.778)
(151859.44 -25062.151 1.2725856e-09 -13134.862 -5.0903422e-09 25222.65)
(113597.86 -23876.181 1.2725856e-09 -9946.1484 2.0361369e-08 18845.765)
(77335.971 -22690.882 2.5451711e-09 -6924.0669 0 12802.164)
(43067.83 -21506.277 6.3629278e-10 -4068.1221 -1.5271027e-08 7090.856)
(10787.301 -20322.388 -6.3629278e-10 -1377.8033 -1.0180684e-08 1710.8178)
(-19511.913 -19139.235 1.9088783e-09 1147.4158 -2.0361369e-08 -3338.9994)
(-47836.263 -17956.845 2.5451711e-09 3508.0729 -2.0361369e-08 -8059.6709)
(-74192.339 -16775.249 0 5704.7208 2.0361369e-08 -12452.294)
(-98586.893 -15594.522 6.3629278e-10 7737.9118 -2.0361369e-08 -16517.997)
(-121026.93 -14414.799 6.3629278e-10 9608.1863 -1.0180684e-08 -20257.953)
(-141519.72 -13236.21 3.1814639e-09 11316.063 -2.5451711e-08 -23673.393)
(-160072.58 -12058.755 1.2725856e-09 12862.008 -3.0542053e-08 -26765.558)
(-176691.92 -10882.345 3.1814639e-09 14246.249 2.0361369e-08 -29535.577)
(-191381.96 -9707.6718 1.2725856e-09 15467.816 0 -31984.389)
(-204142.39 -8538.8636 -3.1814639e-10 16520.567 -2.0361369e-08 -34113.059)
(-214965.61 -7392.1471 0 17377.514 -2.0361369e-08 -35925.108)
(-223876.53 -6338.3859 2.8633175e-09 17930.488 0 -37444.735)
(-231308.5 -5686.1882 9.5443917e-10 17883.467 -1.0180684e-08 -38804.551)
(-241598.08 -7065.4597 6.3629278e-10 16601.182 -2.0361369e-08 -40908.527)
(-274318.8 -14687.075 1.9088783e-09 21883.37 1.0180684e-08 -45897.35)
(-491656.72 -63622.312 9.5443917e-10 56194.266 -2.0361369e-08 -79174.991)
(-834643.73 24882.955 1.5907319e-09 816928.56 -2.0361369e-08 -3220.9398)
)
;

boundaryField
{
    left
    {
        type            calculated;
        value           nonuniform List<symmTensor> 4((-1263094.8 -60855.154 0 -19478.814 0 -233195.2) (-374671.97 -92139.999 0 -83260.437 0 -83260.437) (374662.03 -92139.222 0 83258.228 0 83258.228) (1263084.5 -60853.91 0 19478.722 0 233193.32));
    }
    right
    {
        type            calculated;
        value           nonuniform List<symmTensor> 4((144634.28 771.7713 0 -1736697.5 0 -289466.04) (49222.682 1154.5175 0 -591037.88 0 -98511.855) (-49222.409 1154.5088 0 591034.63 0 98511.313) (-144634.37 771.76172 0 1736698.6 0 289466.22));
    }
    top
    {
        type            calculated;
        value           nonuniform List<symmTensor> 
40
(
(1236433.4 -55.058019 0 -103008.25 0 206077.31)
(1433354.6 -105.51677 0 -119410.98 0 238898.83)
(1373164.2 -168.39599 0 -114394.14 0 228867.28)
(1289483.7 -234.41896 0 -107420.78 0 214920.53)
(1199252.9 -300.32702 0 -99901.889 0 199882.01)
(1110462.6 -365.50958 0 -92503.167 0 185083.53)
(1024216.8 -429.73148 0 -85316.593 0 170709.13)
(940697.76 -492.82064 0 -78357.336 0 156789.17)
(859916.78 -554.61227 0 -71626.341 0 143325.53)
(781869.48 -614.94454 0 -65123.241 0 130317.5)
(706550.94 -673.65911 0 -58847.623 0 117764.24)
(633956.38 -730.60179 0 -52799.086 0 105664.96)
(564080.78 -785.62304 0 -46977.209 0 94018.831)
(496918.8 -838.57832 0 -41381.545 0 82824.955)
(432464.7 -889.32851 0 -36011.613 0 72082.379)
(370712.38 -937.74028 0 -30866.899 0 61790.087)
(311655.39 -983.68642 0 -25946.865 0 51947.004)
(255286.93 -1027.0462 0 -21250.939 0 42551.998)
(201599.91 -1067.7057 0 -16778.526 0 33603.887)
(150586.9 -1105.5581 0 -12529.005 0 25101.436)
(102240.25 -1140.5039 0 -8501.7309 0 17043.366)
(56551.988 -1172.4512 0 -4696.0387 0 9428.3545)
(13513.953 -1201.3162 0 -1111.242 0 2255.0383)
(-26882.258 -1227.023 0 2253.3635 0 -4477.9808)
(-64645.244 -1249.5039 0 5398.4989 0 -10772.135)
(-99783.778 -1268.6997 0 8324.9001 0 -16628.887)
(-132306.85 -1284.5596 0 11033.321 0 -22049.733)
(-162223.84 -1297.0416 0 13524.548 0 -27036.235)
(-189544.61 -1306.1135 0 15799.409 0 -31590.037)
(-214279.2 -1311.7541 0 17858.745 0 -35712.81)
(-236436.56 -1313.9536 0 19703.308 0 -39406.046)
(-256022.7 -1312.7101 0 21333.601 0 -42670.745)
(-273038.2 -1308.0265 0 22749.678 0 -45507.003)
(-287480.53 -1299.9136 0 23951.332 0 -47914.399)
(-299459.12 -1288.4021 0 24947.682 0 -49911.17)
(-310132.36 -1273.4767 0 25835.211 0 -51690.39)
(-329346.01 -1254.3893 0 27433.888 0 -54893.114)
(-402877.36 -1223.7408 0 33556.085 0 -67149.322)
(-861612.54 -1147.213 0 71758.303 0 -143609.86)
(-1762196.3 -764.25178 0 146758 0 -293716.05)
)
;
    }
    bottom
    {
        type            calculated;
        value           nonuniform List<symmTensor> 
40
(
(-1236441.1 -55.05204 0 103008.89 0 -206078.59)
(-1433363.7 -105.51445 0 119411.75 0 -238900.35)
(-1373173.9 -168.39537 0 114394.96 0 -228868.91)
(-1289493.9 -234.41881 0 107421.63 0 -214922.22)
(-1199263.2 -300.32699 0 99902.755 0 -199883.73)
(-1110473 -365.50958 0 92504.039 0 -185085.26)
(-1024227.2 -429.73152 0 85317.465 0 -170710.86)
(-940708.12 -492.82072 0 78358.205 0 -156790.89)
(-859927.06 -554.6124 0 71627.203 0 -143327.25)
(-781879.63 -614.94471 0 65124.092 0 -130319.19)
(-706560.92 -673.65933 0 58848.46 0 -117765.9)
(-633966.14 -730.60207 0 52799.904 0 -105666.59)
(-564090.29 -785.62338 0 46978.007 0 -94020.414)
(-496928.01 -838.5787 0 41382.318 0 -82826.49)
(-432473.59 -889.32894 0 36012.358 0 -72083.86)
(-370720.91 -937.74075 0 30867.615 0 -61791.508)
(-311663.53 -983.68694 0 25947.548 0 -51948.36)
(-255294.66 -1027.0468 0 21251.587 0 -42553.286)
(-201607.2 -1067.7063 0 16779.137 0 -33605.102)
(-150593.74 -1105.5587 0 12529.578 0 -25102.575)
(-102246.61 -1140.5045 0 8502.2645 0 -17044.426)
(-56557.869 -1172.4519 0 4696.5319 0 -9429.334)
(-13519.349 -1201.3169 0 1111.6946 0 -2255.9372)
(26877.336 -1227.0236 0 -2252.9507 0 4477.161)
(64640.78 -1249.5044 0 -5398.1245 0 10771.392)
(99779.752 -1268.7002 0 -8324.5625 0 16628.216)
(132303.24 -1284.5602 0 -11033.019 0 22049.132)
(162220.54 -1297.0427 0 -13524.271 0 27035.685)
(189541.38 -1306.1149 0 -15799.138 0 31589.498)
(214275.73 -1311.7552 0 -17858.454 0 35712.231)
(236432.73 -1313.9532 0 -19702.987 0 39405.408)
(256018.85 -1312.7077 0 -21333.278 0 42670.104)
(273034.72 -1308.0237 0 -22749.387 0 45506.425)
(287477.48 -1299.913 0 -23951.076 0 47913.892)
(299456.03 -1288.4049 0 -24947.424 0 49910.656)
(310128.73 -1273.4808 0 -25834.907 0 51689.785)
(329342.29 -1254.3914 0 -27433.575 0 54892.493)
(402874.75 -1223.7402 0 -33555.867 0 67148.888)
(861611.45 -1147.2127 0 -71758.212 0 143609.68)
(1762195.6 -764.25479 0 -146757.94 0 293715.93)
)
;
    }
    frontAndBack
    {
        type            empty;
    }
}


// ************************************************************************* //
