/*--------------------------------*- C++ -*----------------------------------*\
| =========                 |                                                 |
| \\      /  F ield         | OpenFOAM: The Open Source CFD Toolbox           |
|  \\    /   O peration     | Version:  2512                                  |
|   \\  /    A nd           | Website:  www.openfoam.com                      |
|    \\/     M anipulation  |                                                 |
\*---------------------------------------------------------------------------*/
FoamFile
{
    version     2.0;
    format      ascii;
    arch        "LSB;label=32;scalar=64";
    class       volVectorField;
    location    "0.2";
    object      D_0;
}
// * * * * * * * * * * * * * * * * * * * * * * * * * * * * * * * * * * * * * //

dimensions      [0 1 0 0 0 0 0];

internalField   nonuniform List<vector> 
160
(
(-4.9722182e-08 -3.1306256e-08 0)
(-1.3749556e-07 -1.2600087e-07 0)
(-2.1600604e-07 -2.7235823e-07 0)
(-2.8542162e-07 -4.6625156e-07 0)
(-3.4628693e-07 -7.0231733e-07 0)
(-3.9912455e-07 -9.7507065e-07 0)
(-4.4445048e-07 -1.2793474e-06 0)
(-4.8276951e-07 -1.610326e-06 0)
(-5.145737e-07 -1.9635222e-06 0)
(-5.4034129e-07 -2.3347773e-06 0)
(-5.6053524e-07 -2.7202491e-06 0)
(-5.7560244e-07 -3.1163998e-06 0)
(-5.8597271e-07 -3.5199853e-06 0)
(-5.9205845e-07 -3.9280429e-06 0)
(-5.9425409e-07 -4.3378795e-06 0)
(-5.9293607e-07 -4.7470588e-06 0)
(-5.8846282e-07 -5.1533894e-06 0)
(-5.8117509e-07 -5.554912e-06 0)
(-5.7139632e-07 -5.9498883e-06 0)
(-5.5943334e-07 -6.3367884e-06 0)
(-5.4557703e-07 -6.7142804e-06 0)
(-5.3010334e-07 -7.0812195e-06 0)
(-5.1327422e-07 -7.4366386e-06 0)
(-4.9533875e-07 -7.7797385e-06 0)
(-4.7653433e-07 -8.1098806e-06 0)
(-4.5708787e-07 -8.4265784e-06 0)
(-4.3721704e-07 -8.7294919e-06 0)
(-4.1713141e-07 -9.0184212e-06 0)
(-3.9703365e-07 -9.2933023e-06 0)
(-3.7712059e-07 -9.5542022e-06 0)
(-3.5758468e-07 -9.8013145e-06 0)
(-3.3861569e-07 -1.0034956e-05 0)
(-3.204024e-07 -1.0255565e-05 0)
(-3.0313375e-07 -1.0463707e-05 0)
(-2.8699755e-07 -1.0660078e-05 0)
(-2.7217978e-07 -1.0845512e-05 0)
(-2.5886159e-07 -1.1020979e-05 0)
(-2.4721804e-07 -1.1187507e-05 0)
(-2.373303e-07 -1.1345568e-05 0)
(-2.2936009e-07 -1.1487806e-05 0)
(-1.3612378e-08 -1.4738493e-08 0)
(-4.3148682e-08 -1.0908619e-07 0)
(-6.961623e-08 -2.5725512e-07 0)
(-9.2959495e-08 -4.5302701e-07 0)
(-1.1340469e-07 -6.9078883e-07 0)
(-1.3115951e-07 -9.6510722e-07 0)
(-1.4640472e-07 -1.2708401e-06 0)
(-1.5931025e-07 -1.6031743e-06 0)
(-1.7004024e-07 -1.9576289e-06 0)
(-1.7875378e-07 -2.3300487e-06 0)
(-1.8560498e-07 -2.7165942e-06 0)
(-1.9074251e-07 -3.1137312e-06 0)
(-1.9430951e-07 -3.5182188e-06 0)
(-1.9644331e-07 -3.927098e-06 0)
(-1.9727535e-07 -4.337679e-06 0)
(-1.969311e-07 -4.7475292e-06 0)
(-1.955301e-07 -5.1544607e-06 0)
(-1.9318605e-07 -5.5565178e-06 0)
(-1.9000693e-07 -5.9519652e-06 0)
(-1.8609523e-07 -6.3392766e-06 0)
(-1.8154814e-07 -6.7171229e-06 0)
(-1.7645795e-07 -7.0843624e-06 0)
(-1.7091226e-07 -7.4400303e-06 0)
(-1.6499445e-07 -7.7833303e-06 0)
(-1.5878399e-07 -8.1136257e-06 0)
(-1.5235689e-07 -8.4304321e-06 0)
(-1.4578606e-07 -8.7334111e-06 0)
(-1.3914173e-07 -9.0223645e-06 0)
(-1.3249181e-07 -9.2972296e-06 0)
(-1.2590232e-07 -9.5580741e-06 0)
(-1.1943791e-07 -9.8050924e-06 0)
(-1.1316248e-07 -1.0038601e-05 0)
(-1.0713975e-07 -1.0259039e-05 0)
(-1.0143394e-07 -1.0466972e-05 0)
(-9.6111454e-08 -1.0663091e-05 0)
(-9.1248181e-08 -1.084821e-05 0)
(-8.6956963e-08 -1.102322e-05 0)
(-8.3475951e-08 -1.1188929e-05 0)
(-8.1379292e-08 -1.1345611e-05 0)
(-8.1055914e-08 -1.1492511e-05 0)
(1.3603308e-08 -1.473667e-08 0)
(4.311877e-08 -1.0908302e-07 0)
(6.956496e-08 -2.5725163e-07 0)
(9.2887073e-08 -4.5302358e-07 0)
(1.1331138e-07 -6.9078547e-07 0)
(1.3104575e-07 -9.6510399e-07 0)
(1.4627097e-07 -1.270837e-06 0)
(1.5915717e-07 -1.6031713e-06 0)
(1.6986854e-07 -1.957626e-06 0)
(1.7856437e-07 -2.3300459e-06 0)
(1.8539881e-07 -2.7165916e-06 0)
(1.9052071e-07 -3.1137288e-06 0)
(1.9407326e-07 -3.5182166e-06 0)
(1.9619389e-07 -3.927096e-06 0)
(1.9701405e-07 -4.3376772e-06 0)
(1.9665929e-07 -4.7475277e-06 0)
(1.9524915e-07 -5.1544593e-06 0)
(1.9289733e-07 -5.5565166e-06 0)
(1.897118e-07 -5.9519643e-06 0)
(1.8579499e-07 -6.3392759e-06 0)
(1.8124409e-07 -6.7171224e-06 0)
(1.7615129e-07 -7.0843621e-06 0)
(1.7060413e-07 -7.4400302e-06 0)
(1.6468588e-07 -7.7833304e-06 0)
(1.5847592e-07 -8.1136258e-06 0)
(1.5205009e-07 -8.4304323e-06 0)
(1.4548115e-07 -8.7334114e-06 0)
(1.3883914e-07 -9.022365e-06 0)
(1.3219183e-07 -9.2972303e-06 0)
(1.2560514e-07 -9.5580752e-06 0)
(1.1914351e-07 -9.8050937e-06 0)
(1.1287045e-07 -1.0038602e-05 0)
(1.0684921e-07 -1.025904e-05 0)
(1.0114375e-07 -1.0466971e-05 0)
(9.5820861e-08 -1.066309e-05 0)
(9.095708e-08 -1.084821e-05 0)
(8.6665821e-08 -1.102322e-05 0)
(8.3185077e-08 -1.118893e-05 0)
(8.1088126e-08 -1.1345612e-05 0)
(8.0764383e-08 -1.1492512e-05 0)
(4.9712446e-08 -3.1300153e-08 0)
(1.3746702e-07 -1.2599167e-07 0)
(2.1595845e-07 -2.7234834e-07 0)
(2.853547e-07 -4.6624176e-07 0)
(3.4620077e-07 -7.0230771e-07 0)
(3.9901929e-07 -9.7506131e-07 0)
(4.4432655e-07 -1.2793383e-06 0)
(4.8262738e-07 -1.6103173e-06 0)
(5.1441408e-07 -1.9635138e-06 0)
(5.4016493e-07 -2.3347694e-06 0)
(5.6034308e-07 -2.7202416e-06 0)
(5.7539545e-07 -3.1163928e-06 0)
(5.8575203e-07 -3.5199789e-06 0)
(5.9182522e-07 -3.9280371e-06 0)
(5.9400954e-07 -4.3378743e-06 0)
(5.9268145e-07 -4.7470542e-06 0)
(5.8819941e-07 -5.1533854e-06 0)
(5.8090417e-07 -5.5549087e-06 0)
(5.7111916e-07 -5.9498856e-06 0)
(5.5915116e-07 -6.3367863e-06 0)
(5.4529103e-07 -6.7142789e-06 0)
(5.2981467e-07 -7.0812186e-06 0)
(5.1298393e-07 -7.4366381e-06 0)
(4.9504782e-07 -7.7797386e-06 0)
(4.7624364e-07 -8.109881e-06 0)
(4.5679817e-07 -8.4265792e-06 0)
(4.3692893e-07 -8.7294929e-06 0)
(4.1684533e-07 -9.0184226e-06 0)
(3.9674982e-07 -9.2933043e-06 0)
(3.7683901e-07 -9.554205e-06 0)
(3.5730508e-07 -9.8013176e-06 0)
(3.383376e-07 -1.0034958e-05 0)
(3.2012528e-07 -1.0255565e-05 0)
(3.0285691e-07 -1.0463705e-05 0)
(2.8672053e-07 -1.0660077e-05 0)
(2.7190202e-07 -1.0845513e-05 0)
(2.585827e-07 -1.1020981e-05 0)
(2.4693798e-07 -1.1187508e-05 0)
(2.3704942e-07 -1.1345568e-05 0)
(2.2907817e-07 -1.1487807e-05 0)
)
;

boundaryField
{
    left
    {
        nonOrthogonalCorrections true;
        type            fixedDisplacement;
        value           uniform (0 0 0);
    }
    right
    {
        type            solidTraction;
        nonOrthogonalCorrections true;
        useUndeformedArea false;
        traction        uniform (0 0 0);
        pressure        uniform 0;
        secondOrder     false;
        extrapolateValue false;
        setEffectiveTraction false;
        relaxationFactor 1;
        value           nonuniform List<vector> 4((-2.2301517e-07 -1.1536433e-05 0) (-7.8816089e-08 -1.1566487e-05 0) (7.8525076e-08 -1.156649e-05 0) (2.227331e-07 -1.1536437e-05 0));
        gradient        uniform (0 0 0);
    }
    top
    {
        type            solidTraction;
        nonOrthogonalCorrections true;
        useUndeformedArea false;
        traction        uniform (0 0 0);
        pressure        uniform 0;
        secondOrder     false;
        extrapolateValue false;
        setEffectiveTraction false;
        relaxationFactor 1;
        value           nonuniform List<vector> 
40
(
(8.5090159e-08 -4.607884e-08 0)
(1.9740035e-07 -1.4206194e-07 0)
(2.9980168e-07 -2.8686775e-07 0)
(3.9144155e-07 -4.7911363e-07 0)
(4.7186909e-07 -7.1354003e-07 0)
(5.4163528e-07 -9.8474535e-07 0)
(6.0140261e-07 -1.2875744e-06 0)
(6.5184391e-07 -1.6172055e-06 0)
(6.9361742e-07 -1.9691516e-06 0)
(7.273625e-07 -2.3392513e-06 0)
(7.53698e-07 -2.7236589e-06 0)
(7.7322082e-07 -3.1188334e-06 0)
(7.8650499e-07 -3.5215271e-06 0)
(7.9410082e-07 -3.9287737e-06 0)
(7.9653451e-07 -4.3378765e-06 0)
(7.943079e-07 -4.7463954e-06 0)
(7.8789861e-07 -5.1521354e-06 0)
(7.7776037e-07 -5.5531337e-06 0)
(7.6432364e-07 -5.9476485e-06 0)
(7.4799646e-07 -6.3341465e-06 0)
(7.2916549e-07 -6.7112928e-06 0)
(7.0819724e-07 -7.0779397e-06 0)
(6.8543949e-07 -7.4331172e-06 0)
(6.6122272e-07 -7.7760237e-06 0)
(6.3586177e-07 -8.1060183e-06 0)
(6.0965749e-07 -8.4226127e-06 0)
(5.828984e-07 -8.7254649e-06 0)
(5.5586232e-07 -9.014374e-06 0)
(5.2881768e-07 -9.2892746e-06 0)
(5.0202473e-07 -9.5502325e-06 0)
(4.7573742e-07 -9.7974401e-06 0)
(4.5020643e-07 -1.0031213e-05 0)
(4.2568267e-07 -1.025199e-05 0)
(4.0241896e-07 -1.0460338e-05 0)
(3.8066814e-07 -1.0656955e-05 0)
(3.6067477e-07 -1.0842669e-05 0)
(3.4263015e-07 -1.1018412e-05 0)
(3.2630792e-07 -1.1185051e-05 0)
(3.0972436e-07 -1.1341876e-05 0)
(2.76793e-07 -1.1481326e-05 0)
)
;
        gradient        uniform (0 0 0);
    }
    bottom
    {
        type            solidTraction;
        nonOrthogonalCorrections true;
        useUndeformedArea false;
        traction        uniform (0 0 0);
        pressure        uniform 0;
        secondOrder     false;
        extrapolateValue false;
        setEffectiveTraction false;
        relaxationFactor 1;
        value           nonuniform List<vector> 
40
(
(-8.5102891e-08 -4.6087176e-08 0)
(-1.9742999e-07 -1.4207378e-07 0)
(-2.9984949e-07 -2.8688044e-07 0)
(-3.9150842e-07 -4.7912631e-07 0)
(-4.7195512e-07 -7.1355253e-07 0)
(-5.4174038e-07 -9.8475753e-07 0)
(-6.0152634e-07 -1.2875863e-06 0)
(-6.5198581e-07 -1.6172169e-06 0)
(-6.9377677e-07 -1.9691625e-06 0)
(-7.2753857e-07 -2.3392616e-06 0)
(-7.5388984e-07 -2.7236687e-06 0)
(-7.7342745e-07 -3.1188425e-06 0)
(-7.8672529e-07 -3.5215355e-06 0)
(-7.9433365e-07 -3.9287814e-06 0)
(-7.9677864e-07 -4.3378834e-06 0)
(-7.945621e-07 -4.7464014e-06 0)
(-7.881616e-07 -5.1521406e-06 0)
(-7.7803088e-07 -5.5531381e-06 0)
(-7.646004e-07 -5.947652e-06 0)
(-7.4827825e-07 -6.3341493e-06 0)
(-7.2945111e-07 -6.7112949e-06 0)
(-7.0848557e-07 -7.0779409e-06 0)
(-6.8572946e-07 -7.4331178e-06 0)
(-6.6151336e-07 -7.7760237e-06 0)
(-6.3615223e-07 -8.1060179e-06 0)
(-6.0994699e-07 -8.4226117e-06 0)
(-5.8318632e-07 -8.7254637e-06 0)
(-5.5614814e-07 -9.0143722e-06 0)
(-5.2910117e-07 -9.2892722e-06 0)
(-5.0230606e-07 -9.5502295e-06 0)
(-4.7601719e-07 -9.7974368e-06 0)
(-4.5048526e-07 -1.003121e-05 0)
(-4.2596071e-07 -1.025199e-05 0)
(-4.0269621e-07 -1.046034e-05 0)
(-3.8094475e-07 -1.0656957e-05 0)
(-3.6095177e-07 -1.0842668e-05 0)
(-3.4290877e-07 -1.101841e-05 0)
(-3.2658829e-07 -1.1185049e-05 0)
(-3.100053e-07 -1.1341876e-05 0)
(-2.7707413e-07 -1.1481325e-05 0)
)
;
        gradient        uniform (0 0 0);
    }
    frontAndBack
    {
        type            empty;
    }
}


// ************************************************************************* //
