/*--------------------------------*- C++ -*----------------------------------*\
| =========                 |                                                 |
| \\      /  F ield         | OpenFOAM: The Open Source CFD Toolbox           |
|  \\    /   O peration     | Version:  2512                                  |
|   \\  /    A nd           | Website:  www.openfoam.com                      |
|    \\/     M anipulation  |                                                 |
\*---------------------------------------------------------------------------*/
FoamFile
{
    version     2.0;
    format      ascii;
    arch        "LSB;label=32;scalar=64";
    class       volSymmTensorField;
    location    "0.2";
    object      epsilon;
}
// * * * * * * * * * * * * * * * * * * * * * * * * * * * * * * * * * * * * * //

dimensions      [0 0 0 0 0 0 0];

internalField   nonuniform List<symmTensor> 
160
(
(-4.0120443e-06 -1.5292838e-07 -6.4623485e-23 1.1537068e-06 1.2924697e-22 0)
(-4.2085439e-06 -2.8544101e-07 2.3264455e-21 1.2188716e-06 -1.2924697e-21 0)
(-3.8885146e-06 -2.7805215e-07 -5.1698788e-22 1.1695863e-06 1.0339758e-21 0)
(-3.5388802e-06 -2.7528779e-07 0 1.0647603e-06 1.0339758e-21 0)
(-3.1886719e-06 -2.678263e-07 0 9.594862e-07 0 0)
(-2.8523801e-06 -2.5964784e-07 1.0339758e-21 8.5837563e-07 -2.0679515e-21 0)
(-2.5316986e-06 -2.5129787e-07 0 7.6210932e-07 4.1359031e-21 0)
(-2.2267809e-06 -2.4293617e-07 -1.0339758e-21 6.706142e-07 0 0)
(-1.937488e-06 -2.3459074e-07 1.0339758e-21 5.8381649e-07 4.1359031e-21 0)
(-1.6636457e-06 -2.2626868e-07 -3.1019273e-21 5.0165545e-07 -4.1359031e-21 0)
(-1.4050648e-06 -2.1797271e-07 2.0679515e-21 4.2407267e-07 8.2718061e-21 0)
(-1.1615426e-06 -2.0970502e-07 4.1359031e-21 3.5100702e-07 -3.3087225e-20 0)
(-9.3286274e-07 -2.0146725e-07 6.2038546e-21 2.8239358e-07 -1.6543612e-20 0)
(-7.1879656e-07 -1.9326112e-07 -4.1359031e-21 2.1816378e-07 -2.4815418e-20 0)
(-5.1910427e-07 -1.8508792e-07 -2.0679515e-21 1.5824574e-07 -1.6543612e-20 0)
(-3.3353666e-07 -1.76949e-07 -2.0679515e-21 1.0256475e-07 1.6543612e-20 0)
(-1.618364e-07 -1.6884528e-07 2.0679515e-21 5.1043711e-08 -1.6543612e-20 0)
(-3.739912e-09 -1.6077767e-07 6.2038546e-21 3.6035849e-09 -1.6543612e-20 0)
(1.4102135e-07 -1.5274669e-07 4.1359031e-21 -3.9836088e-08 -6.6174449e-20 0)
(2.7271908e-07 -1.4475278e-07 -4.1359031e-21 -7.9356763e-08 0 0)
(3.9162685e-07 -1.3679604e-07 2.0679515e-21 -1.1504043e-07 3.3087225e-20 0)
(4.980185e-07 -1.2887656e-07 -2.0679515e-21 -1.4696922e-07 1.6543612e-20 0)
(5.9216711e-07 -1.209942e-07 -6.2038546e-21 -1.7522501e-07 -1.6543612e-20 0)
(6.7434362e-07 -1.1314887e-07 -6.2038546e-21 -1.998891e-07 -1.323489e-19 0)
(7.448162e-07 -1.0534052e-07 0 -2.2104196e-07 -8.2718061e-20 0)
(8.038493e-07 -9.756938e-08 -2.0679515e-21 -2.387632e-07 3.3087225e-20 0)
(8.5170434e-07 -8.9836913e-08 -2.0679515e-21 -2.531315e-07 -6.6174449e-20 0)
(8.8864127e-07 -8.2145739e-08 -4.1359031e-21 -2.6422532e-07 -3.3087225e-20 0)
(9.1492091e-07 -7.4499115e-08 0 -2.7212197e-07 -3.3087225e-20 0)
(9.3079868e-07 -6.6891261e-08 -1.0339758e-21 -2.7689503e-07 0 0)
(9.3650477e-07 -5.9304307e-08 -4.1359031e-21 -2.7861007e-07 0 0)
(9.3222464e-07 -5.17168e-08 2.0679515e-21 -2.7731965e-07 6.6174449e-20 0)
(9.1809653e-07 -4.4134811e-08 4.1359031e-21 -2.7305952e-07 -3.3087225e-20 0)
(8.942552e-07 -3.6636951e-08 0 -2.6582403e-07 1.323489e-19 0)
(8.6093466e-07 -2.94674e-08 -3.1019273e-21 -2.5546091e-07 -6.6174449e-20 0)
(8.192228e-07 -2.3470076e-08 3.1019273e-21 -2.4162131e-07 1.9852335e-19 0)
(7.7852602e-07 -2.2946747e-08 3.1019273e-21 -2.251493e-07 -9.9261674e-20 0)
(7.8547925e-07 -3.8967353e-08 0 -2.3294959e-07 -9.9261674e-20 0)
(1.205485e-06 -1.648112e-07 2.0679515e-21 -3.9462144e-07 3.3087225e-20 0)
(2.2515303e-06 8.0947273e-08 -1.0339758e-21 -2.2158733e-06 -1.6543612e-19 0)
(-1.5419063e-06 -7.4844164e-07 -2.261822e-22 2.1555847e-07 0 0)
(-1.4365131e-06 -6.6541801e-07 -6.4623485e-22 4.2504048e-07 -1.2924697e-21 0)
(-1.3095617e-06 -6.2151892e-07 -1.0339758e-21 3.9903188e-07 -1.0339758e-21 0)
(-1.1853762e-06 -5.9122012e-07 -2.5849394e-22 3.5992091e-07 2.0679515e-21 0)
(-1.0673776e-06 -5.6719952e-07 -7.7548182e-22 3.231737e-07 -6.2038546e-21 0)
(-9.5503574e-07 -5.4464448e-07 -1.0339758e-21 2.8908716e-07 6.2038546e-21 0)
(-8.4808143e-07 -5.2248722e-07 -2.5849394e-21 2.5690247e-07 4.1359031e-21 0)
(-7.4639927e-07 -5.0051741e-07 -1.0339758e-21 2.2636469e-07 -4.1359031e-21 0)
(-6.4992227e-07 -4.7871551e-07 -3.1019273e-21 1.973994e-07 2.0679515e-20 0)
(-5.5859045e-07 -4.5709329e-07 -2.5849394e-21 1.6997801e-07 2.0679515e-20 0)
(-4.7234117e-07 -4.3566599e-07 -5.1698788e-22 1.4407997e-07 -8.2718061e-21 0)
(-3.9110721e-07 -4.144481e-07 -4.1359031e-21 1.1968496e-07 -1.6543612e-20 0)
(-3.1481693e-07 -3.9345275e-07 -3.6189152e-21 9.6771573e-08 8.2718061e-21 0)
(-2.433945e-07 -3.7269172e-07 -2.0679515e-21 7.5317212e-08 -6.6174449e-20 0)
(-1.7676048e-07 -3.5217531e-07 -1.5509636e-21 5.5298214e-08 7.4446255e-20 0)
(-1.1483223e-07 -3.3191233e-07 -5.1698788e-21 3.6689971e-08 0 0)
(-5.7524476e-08 -3.1190998e-07 -4.6528909e-21 1.9467097e-08 -4.9630837e-20 0)
(-4.7497849e-09 -2.9217396e-07 -3.6189152e-21 3.6035533e-09 1.6543612e-20 0)
(4.3580857e-08 -2.7270832e-07 -2.0679515e-21 -1.0927173e-08 0 0)
(8.7557615e-08 -2.5351565e-07 -4.6528909e-21 -2.4151947e-08 1.6543612e-20 0)
(1.2727122e-07 -2.3459708e-07 -3.1019273e-21 -3.6097817e-08 -3.3087225e-20 0)
(1.6281259e-07 -2.1595248e-07 -3.1019273e-21 -4.6791906e-08 -1.6543612e-20 0)
(1.9427234e-07 -1.9758059e-07 -4.1359031e-21 -5.6261265e-08 -4.9630837e-20 0)
(2.217404e-07 -1.7947935e-07 -3.6189152e-21 -6.4532784e-08 -6.6174449e-20 0)
(2.4530576e-07 -1.6164617e-07 -4.6528909e-21 -7.1633097e-08 -4.9630837e-20 0)
(2.6505633e-07 -1.4407875e-07 -2.0679515e-21 -7.7588769e-08 -9.9261674e-20 0)
(2.8107915e-07 -1.267761e-07 -3.1019273e-21 -8.2426304e-08 9.9261674e-20 0)
(2.9346098e-07 -1.0973904e-07 -1.5509636e-21 -8.617267e-08 1.323489e-19 0)
(3.0228741e-07 -9.2964332e-08 -2.0679515e-21 -8.885362e-08 0 0)
(3.0763996e-07 -7.6431764e-08 -3.6189152e-21 -9.0491157e-08 0 0)
(3.0959102e-07 -6.0097749e-08 -4.6528909e-21 -9.1101832e-08 0 0)
(3.082019e-07 -4.3913062e-08 -2.0679515e-21 -9.069699e-08 -1.323489e-19 0)
(3.0352414e-07 -2.7862601e-08 -4.1359031e-21 -8.9282632e-08 -3.3087225e-20 0)
(2.9559748e-07 -1.1964475e-08 0 -8.6818472e-08 -6.6174449e-20 0)
(2.8438109e-07 3.9304042e-09 -1.5509636e-21 -8.3000148e-08 3.3087225e-20 0)
(2.6947252e-07 2.1028006e-08 -2.0679515e-21 -7.6404535e-08 0 0)
(2.4916963e-07 4.5558377e-08 -5.1698788e-22 -6.2288736e-08 -9.9261674e-20 0)
(2.1923637e-07 1.0186639e-07 -1.5509636e-21 -3.1600165e-08 -6.6174449e-20 0)
(1.7734292e-07 2.8196994e-07 -2.3264455e-21 -5.0341499e-08 -3.3087225e-20 0)
(2.7259641e-07 5.2235846e-07 -2.5849394e-21 -7.1668069e-07 3.3087225e-20 0)
(1.5414866e-06 -7.4841337e-07 -4.8467614e-23 -2.1550334e-07 1.9387046e-22 0)
(1.4360664e-06 -6.6540324e-07 1.9387046e-22 -4.2491479e-07 -1.0339758e-21 0)
(1.3091077e-06 -6.2149914e-07 -1.2924697e-22 -3.9888753e-07 0 0)
(1.1849209e-06 -5.9119184e-07 2.5849394e-22 -3.5977328e-07 5.1698788e-21 0)
(1.0669229e-06 -5.6716284e-07 2.5849394e-22 -3.2302655e-07 -8.2718061e-21 0)
(9.5458295e-07 -5.4460009e-07 -5.1698788e-22 -2.8894118e-07 2.0679515e-21 0)
(8.4763225e-07 -5.2243572e-07 0 -2.5675794e-07 -6.2038546e-21 0)
(7.4595567e-07 -5.0045916e-07 -5.1698788e-22 -2.2622197e-07 -4.1359031e-21 0)
(6.4948631e-07 -4.7865084e-07 -1.0339758e-21 -1.9725897e-07 0 0)
(5.5816428e-07 -4.5702245e-07 2.5849394e-21 -1.698404e-07 -4.1359031e-21 0)
(4.719268e-07 -4.3558929e-07 5.1698788e-22 -1.4394577e-07 0 0)
(3.9070662e-07 -4.143658e-07 0 -1.195548e-07 1.6543612e-20 0)
(3.1443187e-07 -3.9336517e-07 -2.0679515e-21 -9.6646085e-08 1.6543612e-20 0)
(2.430266e-07 -3.7259916e-07 -1.5509636e-21 -7.5197001e-08 -4.1359031e-20 0)
(1.7641113e-07 -3.5207811e-07 -2.0679515e-21 -5.5183837e-08 9.0989867e-20 0)
(1.1450268e-07 -3.3181079e-07 1.5509636e-21 -3.6581923e-08 -4.9630837e-20 0)
(5.7215721e-08 -3.1180449e-07 -5.1698788e-22 -1.9365793e-08 0 0)
(4.462687e-09 -2.9206483e-07 2.0679515e-21 -3.5093334e-09 0 0)
(-4.384569e-08 -2.7259593e-07 -5.1698788e-22 1.1014059e-08 -3.3087225e-20 0)
(-8.779971e-08 -2.5340035e-07 -1.0339758e-21 2.4231332e-08 4.9630837e-20 0)
(-1.2749038e-07 -2.3447924e-07 -1.0339758e-21 3.6169638e-08 3.3087225e-20 0)
(-1.6300882e-07 -2.1583245e-07 1.0339758e-21 4.68562e-08 -3.3087225e-20 0)
(-1.9444605e-07 -1.9745875e-07 -5.1698788e-22 5.63182e-08 -1.6543612e-20 0)
(-2.2189249e-07 -1.79356e-07 -5.1698788e-22 6.4582741e-08 -6.6174449e-20 0)
(-2.4543788e-07 -1.6152163e-07 1.0339758e-21 7.1676689e-08 1.6543612e-20 0)
(-2.6517094e-07 -1.4395327e-07 -5.1698788e-22 7.7626607e-08 3.3087225e-20 0)
(-2.8117933e-07 -1.2665024e-07 0 8.2457965e-08 -3.3087225e-20 0)
(-2.9354947e-07 -1.0961407e-07 -5.1698788e-22 8.6194663e-08 0 0)
(-3.0236666e-07 -9.2841139e-08 -4.6528909e-21 8.8860178e-08 9.9261674e-20 0)
(-3.0771344e-07 -7.6310175e-08 -1.0339758e-21 9.0480125e-08 -6.6174449e-20 0)
(-3.0966588e-07 -5.9975272e-08 1.0339758e-21 9.1083544e-08 0 0)
(-3.0828824e-07 -4.3787425e-08 0 9.0695452e-08 0 0)
(-3.0362992e-07 -2.7736342e-08 -5.1698788e-22 8.9317102e-08 0 0)
(-2.9571775e-07 -1.1843667e-08 -1.0339758e-21 8.6879849e-08 -3.3087225e-20 0)
(-2.8449874e-07 4.0423251e-09 0 8.305208e-08 6.6174449e-20 0)
(-2.6956889e-07 2.1133136e-08 5.1698788e-22 7.6414271e-08 -9.9261674e-20 0)
(-2.4923573e-07 4.5662126e-08 -5.1698788e-22 6.2259458e-08 3.3087225e-20 0)
(-2.1928337e-07 1.0196918e-07 0 3.156397e-08 -9.9261674e-20 0)
(-1.7737849e-07 2.8206342e-07 -1.2924697e-21 5.0313336e-08 3.3087225e-20 0)
(-2.7259859e-07 5.2242039e-07 -1.0339758e-21 7.1660818e-07 3.3087225e-20 0)
(4.0116739e-06 -1.5291358e-07 1.0339758e-21 -1.1536072e-06 -3.2311743e-22 0)
(4.2081345e-06 -2.8542898e-07 1.0339758e-21 -1.2187533e-06 -1.0339758e-21 0)
(3.8880885e-06 -2.7803408e-07 2.0679515e-21 -1.1694559e-06 5.1698788e-22 0)
(3.5384451e-06 -2.7525998e-07 -5.1698788e-22 -1.0646261e-06 2.0679515e-21 0)
(3.1882338e-06 -2.6778971e-07 1.0339758e-21 -9.5935099e-07 -2.0679515e-21 0)
(2.8519424e-06 -2.5960344e-07 3.1019273e-21 -8.582406e-07 -4.1359031e-21 0)
(2.5312636e-06 -2.5124635e-07 6.2038546e-21 -7.6197521e-07 -1.2407709e-20 0)
(2.2263509e-06 -2.4287789e-07 -3.1019273e-21 -6.7048163e-07 0 0)
(1.9370652e-06 -2.3452605e-07 2.0679515e-21 -5.8368608e-07 1.6543612e-20 0)
(1.6632322e-06 -2.2619781e-07 3.1019273e-21 -5.0152779e-07 -1.2407709e-20 0)
(1.4046626e-06 -2.1789599e-07 2.0679515e-21 -4.2394835e-07 0 0)
(1.1611535e-06 -2.0962269e-07 8.2718061e-21 -3.508866e-07 0 0)
(9.3248856e-07 -2.0137966e-07 4.1359031e-21 -2.8227762e-07 1.6543612e-20 0)
(7.1843881e-07 -1.9316852e-07 0 -2.1805279e-07 1.6543612e-20 0)
(5.1876438e-07 -1.849907e-07 1.6543612e-20 -1.5814018e-07 5.7902643e-20 0)
(3.3321578e-07 -1.7684743e-07 4.1359031e-21 -1.0246503e-07 3.3087225e-20 0)
(1.6153559e-07 -1.6873976e-07 -2.0679515e-21 -5.0950173e-08 0 0)
(3.4599307e-09 -1.6066851e-07 2.0679515e-21 -3.5165137e-09 3.3087225e-20 0)
(-1.4127983e-07 -1.5263428e-07 2.0679515e-21 3.991648e-08 0 0)
(-2.7295567e-07 -1.4463745e-07 8.2718061e-21 7.9430337e-08 3.3087225e-20 0)
(-3.918413e-07 -1.3667819e-07 1.0339758e-20 1.1510713e-07 1.6543612e-20 0)
(-4.9821091e-07 -1.2875652e-07 -2.0679515e-21 1.4702907e-07 0 0)
(-5.9233787e-07 -1.2087237e-07 1.4475661e-20 1.7527815e-07 -4.9630837e-20 0)
(-6.7449363e-07 -1.1302552e-07 8.2718061e-21 1.9993582e-07 -4.9630837e-20 0)
(-7.4494682e-07 -1.0521595e-07 4.1359031e-21 2.2108269e-07 -6.6174449e-20 0)
(-8.0396236e-07 -9.7443719e-08 6.2038546e-21 2.3879839e-07 3.3087225e-20 0)
(-8.5180201e-07 -8.9710705e-08 0 2.5316122e-07 -1.6543612e-19 0)
(-8.8872741e-07 -8.2020798e-08 2.0679515e-21 2.6424868e-07 -6.6174449e-20 0)
(-9.1500188e-07 -7.4376623e-08 6.2038546e-21 2.7213803e-07 -9.9261674e-20 0)
(-9.3088256e-07 -6.6771122e-08 2.0679515e-21 2.7690539e-07 -9.9261674e-20 0)
(-9.3659739e-07 -5.9182476e-08 5.1698788e-21 2.7862125e-07 1.6543612e-19 0)
(-9.3232392e-07 -5.1589342e-08 -5.1698788e-21 2.7734125e-07 -6.6174449e-20 0)
(-9.1819834e-07 -4.4005477e-08 3.1019273e-21 2.7309602e-07 9.9261674e-20 0)
(-8.9435656e-07 -3.6514896e-08 1.0339758e-21 2.6586835e-07 -3.3087225e-20 0)
(-8.6103796e-07 -2.9357687e-08 5.1698788e-21 2.5549802e-07 -3.3087225e-20 0)
(-8.1933067e-07 -2.3368935e-08 6.2038546e-21 2.4164017e-07 -3.3087225e-20 0)
(-7.7862554e-07 -2.2843678e-08 0 2.2515279e-07 -9.9261674e-20 0)
(-7.855499e-07 -3.8860921e-08 4.1359031e-21 2.3294933e-07 -1.6543612e-19 0)
(-1.205523e-06 -1.6471446e-07 -2.0679515e-21 3.946225e-07 -3.3087225e-20 0)
(-2.251548e-06 8.1002596e-08 3.1019273e-21 2.2158929e-06 -6.6174449e-20 0)
)
;

boundaryField
{
    left
    {
        type            calculated;
        value           nonuniform List<symmTensor> 4((-4.9571276e-06 -3.9915692e-07 0 1.0905828e-06 0 0) (-1.3787713e-06 -5.934912e-07 0 0 0 0) (1.37838e-06 -5.9345182e-07 0 0 0 0) (4.9567055e-06 -3.9909391e-07 0 -1.0904925e-06 0 0));
    }
    right
    {
        type            calculated;
        value           nonuniform List<symmTensor> 4((1.1645521e-06 3.3602161e-08 0 -3.8918828e-06 0 0) (4.0200978e-07 5.0314922e-08 0 -1.3434236e-06 0 0) (-4.0197403e-07 5.0314645e-08 0 1.3433046e-06 0 0) (-1.1645635e-06 3.3601856e-08 0 3.8919208e-06 0 0));
    }
    top
    {
        type            calculated;
        value           nonuniform List<symmTensor> 
40
(
(4.9401641e-06 -2.8319156e-09 0 -1.4809576e-06 0 0)
(5.5439073e-06 -5.4264891e-09 0 -1.6617947e-06 0 0)
(5.157729e-06 -8.6521366e-09 0 -1.5459067e-06 0 0)
(4.7068162e-06 -1.2027794e-08 0 -1.4106386e-06 0 0)
(4.2423904e-06 -1.5381722e-08 0 -1.2713316e-06 0 0)
(3.7944887e-06 -1.8678476e-08 0 -1.1369885e-06 0 0)
(3.3670347e-06 -2.1902295e-08 0 -1.0087849e-06 0 0)
(2.9605653e-06 -2.5041099e-08 0 -8.8688149e-07 0 0)
(2.5749367e-06 -2.8083676e-08 0 -7.7123482e-07 0 0)
(2.2099196e-06 -3.1019516e-08 0 -6.6177584e-07 0 0)
(1.8652614e-06 -3.3838882e-08 0 -5.5842839e-07 0 0)
(1.5406907e-06 -3.6532873e-08 0 -4.6111069e-07 0 0)
(1.2359182e-06 -3.9093479e-08 0 -3.697356e-07 0 0)
(9.50638e-07 -4.1513613e-08 0 -2.8421097e-07 0 0)
(6.8452952e-07 -4.3787135e-08 0 -2.0444022e-07 0 0)
(4.3725931e-07 -4.5908864e-08 0 -1.3032293e-07 0 0)
(2.0848341e-07 -4.7874578e-08 0 -6.1755524e-08 0 0)
(-2.1508118e-09 -4.9681005e-08 0 1.3681749e-09 0 0)
(-1.9500227e-07 -5.1325803e-08 0 5.915622e-08 0 0)
(-3.7043433e-07 -5.2807523e-08 0 1.1171797e-07 0 0)
(-5.288126e-07 -5.4125575e-08 0 1.5916347e-07 0 0)
(-6.7050326e-07 -5.5280174e-08 0 2.0160287e-07 0 0)
(-7.9587127e-07 -5.6272284e-08 0 2.3914597e-07 0 0)
(-9.052789e-07 -5.7103553e-08 0 2.7190171e-07 0 0)
(-9.9908439e-07 -5.7776239e-08 0 2.999778e-07 0 0)
(-1.0776405e-06 -5.8293145e-08 0 3.2348029e-07 0 0)
(-1.1412958e-06 -5.8657524e-08 0 3.4251391e-07 0 0)
(-1.1904003e-06 -5.887302e-08 0 3.5718383e-07 0 0)
(-1.2253096e-06 -5.8943605e-08 0 3.6759685e-07 0 0)
(-1.2463734e-06 -5.887355e-08 0 3.7385797e-07 0 0)
(-1.2538981e-06 -5.8667352e-08 0 3.7605915e-07 0 0)
(-1.2481128e-06 -5.8329564e-08 0 3.7426912e-07 0 0)
(-1.2291897e-06 -5.7864626e-08 0 3.6853952e-07 0 0)
(-1.1973393e-06 -5.7276946e-08 0 3.5893344e-07 0 0)
(-1.1531381e-06 -5.6571251e-08 0 3.4562368e-07 0 0)
(-1.0995693e-06 -5.5749553e-08 0 3.2950313e-07 0 0)
(-1.0588071e-06 -5.4781231e-08 0 3.172069e-07 0 0)
(-1.1325519e-06 -5.3345678e-08 0 3.391651e-07 0 0)
(-2.056304e-06 -4.9950602e-08 0 6.1545101e-07 0 0)
(-3.9578956e-06 -3.3254585e-08 0 1.1843161e-06 0 0)
)
;
    }
    bottom
    {
        type            calculated;
        value           nonuniform List<symmTensor> 
40
(
(-4.9404866e-06 -2.8314858e-09 0 1.4810546e-06 0 0)
(-5.5442907e-06 -5.4263315e-09 0 1.6619099e-06 0 0)
(-5.1581383e-06 -8.6521074e-09 0 1.5460297e-06 0 0)
(-4.7072403e-06 -1.2027802e-08 0 1.4107661e-06 0 0)
(-4.2428199e-06 -1.5381741e-08 0 1.2714607e-06 0 0)
(-3.7949188e-06 -1.8678501e-08 0 1.1371178e-06 0 0)
(-3.3674624e-06 -2.1902325e-08 0 1.0089135e-06 0 0)
(-2.9609883e-06 -2.5041134e-08 0 8.8700865e-07 0 0)
(-2.5753527e-06 -2.8083717e-08 0 7.713599e-07 0 0)
(-2.2103267e-06 -3.1019562e-08 0 6.6189821e-07 0 0)
(-1.8656575e-06 -3.3838932e-08 0 5.5854743e-07 0 0)
(-1.5410739e-06 -3.6532927e-08 0 4.6122586e-07 0 0)
(-1.2362868e-06 -3.9093537e-08 0 3.6984637e-07 0 0)
(-9.5099054e-07 -4.1513675e-08 0 2.843169e-07 0 0)
(-6.8486455e-07 -4.3787199e-08 0 2.0454088e-07 0 0)
(-4.3757575e-07 -4.5908929e-08 0 1.30418e-07 0 0)
(-2.0878017e-07 -4.7874643e-08 0 6.1844663e-08 0 0)
(1.8744466e-09 -4.968107e-08 0 -1.2851762e-09 0 0)
(1.9474701e-07 -5.1325866e-08 0 -5.9079571e-08 0 0)
(3.7020051e-07 -5.2807584e-08 0 -1.1164778e-07 0 0)
(5.2860049e-07 -5.4125633e-08 0 -1.590998e-07 0 0)
(6.7031271e-07 -5.5280228e-08 0 -2.0154569e-07 0 0)
(7.957019e-07 -5.6272333e-08 0 -2.3909516e-07 0 0)
(9.0512981e-07 -5.7103595e-08 0 -2.7185699e-07 0 0)
(9.9895438e-07 -5.7776275e-08 0 -2.9993883e-07 0 0)
(1.0775283e-06 -5.8293174e-08 0 -3.2344666e-07 0 0)
(1.1411999e-06 -5.8657552e-08 0 -3.424852e-07 0 0)
(1.1903162e-06 -5.8873055e-08 0 -3.5715865e-07 0 0)
(1.2252278e-06 -5.8943645e-08 0 -3.6757238e-07 0 0)
(1.2462822e-06 -5.8873578e-08 0 -3.7383066e-07 0 0)
(1.2537924e-06 -5.8667326e-08 0 -3.7602747e-07 0 0)
(1.2480041e-06 -5.8329464e-08 0 -3.7423653e-07 0 0)
(1.2290919e-06 -5.7864502e-08 0 -3.6851022e-07 0 0)
(1.1972538e-06 -5.7276883e-08 0 -3.5890784e-07 0 0)
(1.1530475e-06 -5.6571288e-08 0 -3.4559651e-07 0 0)
(1.0994549e-06 -5.5749633e-08 0 -3.2946882e-07 0 0)
(1.0586854e-06 -5.4781251e-08 0 -3.1717037e-07 0 0)
(1.1324669e-06 -5.334563e-08 0 -3.391396e-07 0 0)
(2.0562692e-06 -4.9950595e-08 0 -6.1544059e-07 0 0)
(3.957871e-06 -3.3254687e-08 0 -1.1843088e-06 0 0)
)
;
    }
    frontAndBack
    {
        type            empty;
    }
}


// ************************************************************************* //
