/*--------------------------------*- C++ -*----------------------------------*\
| =========                 |                                                 |
| \\      /  F ield         | OpenFOAM: The Open Source CFD Toolbox           |
|  \\    /   O peration     | Version:  2512                                  |
|   \\  /    A nd           | Website:  www.openfoam.com                      |
|    \\/     M anipulation  |                                                 |
\*---------------------------------------------------------------------------*/
FoamFile
{
    version     2.0;
    format      ascii;
    arch        "LSB;label=32;scalar=64";
    class       volScalarField;
    location    "0.2";
    object      epsilonEq;
}
// * * * * * * * * * * * * * * * * * * * * * * * * * * * * * * * * * * * * * //

dimensions      [0 0 0 0 0 0 0];

internalField   nonuniform List<scalar> 
160
(
3.1359155e-06
3.3046496e-06
3.0745096e-06
2.8010155e-06
2.526563e-06
2.2630899e-06
2.0120958e-06
1.7737144e-06
1.5478928e-06
1.3345902e-06
1.1338099e-06
9.4563921e-07
7.7033345e-07
6.0850596e-07
4.616057e-07
3.3327211e-07
2.3341274e-07
1.8569847e-07
2.0772452e-07
2.7094517e-07
3.4499487e-07
4.1774169e-07
4.849041e-07
5.4483307e-07
5.9685704e-07
6.4071854e-07
6.763566e-07
7.0381299e-07
7.2318771e-07
7.3460916e-07
7.3820666e-07
7.3408963e-07
7.223423e-07
7.0303978e-07
6.7626717e-07
6.4259926e-07
6.0869961e-07
6.1780098e-07
9.8118265e-07
2.5809771e-06
1.4042485e-06
1.3635165e-06
1.2570853e-06
1.1566091e-06
1.0653806e-06
9.8017369e-07
8.9989972e-07
8.2431502e-07
7.5341161e-07
6.8723819e-07
6.2586285e-07
5.6936638e-07
5.1783951e-07
4.7137752e-07
4.3006927e-07
3.9397866e-07
3.6311699e-07
3.3740811e-07
3.166522e-07
3.0049951e-07
2.8844611e-07
2.7985881e-07
2.7402461e-07
2.7021088e-07
2.6772015e-07
2.6592925e-07
2.6430995e-07
2.6243422e-07
2.5996502e-07
2.5664081e-07
2.5226588e-07
2.4671388e-07
2.3993212e-07
2.3190811e-07
2.2252255e-07
2.1120664e-07
1.9744203e-07
1.9677551e-07
3.5366878e-07
8.4376924e-07
1.403992e-06
1.36322e-06
1.2567762e-06
1.1562969e-06
1.0650688e-06
9.7986433e-07
8.9959463e-07
8.2401616e-07
7.5312105e-07
6.8695804e-07
6.2559527e-07
5.6911351e-07
5.1760343e-07
4.7116017e-07
4.2987242e-07
3.9380369e-07
3.6296484e-07
3.3727897e-07
3.1654545e-07
3.0041354e-07
2.883785e-07
2.7980651e-07
2.7398437e-07
2.7017966e-07
2.6769567e-07
2.6591015e-07
2.6429567e-07
2.624237e-07
2.5995599e-07
2.5663281e-07
2.5226594e-07
2.4673842e-07
2.3999623e-07
2.3200558e-07
2.2262516e-07
2.1128734e-07
1.9750337e-07
1.9685988e-07
3.5377229e-07
8.437885e-07
3.135629e-06
3.30433e-06
3.0741731e-06
2.8006704e-06
2.5262144e-06
2.2627404e-06
2.0117473e-06
1.7733685e-06
1.547551e-06
1.3342538e-06
1.1334803e-06
9.4531761e-07
7.7002093e-07
6.0820361e-07
4.613155e-07
3.3299973e-07
2.3318019e-07
1.8556774e-07
2.0772244e-07
2.7101038e-07
3.4508341e-07
4.1783456e-07
4.8499294e-07
5.4491415e-07
5.9692894e-07
6.4078109e-07
6.7641031e-07
7.0385954e-07
7.2323041e-07
7.346535e-07
7.3825864e-07
7.3415176e-07
7.2241428e-07
7.0311711e-07
6.7634466e-07
6.4267297e-07
6.0876076e-07
6.1783776e-07
9.8118559e-07
2.581001e-06
)
;

boundaryField
{
    left
    {
        type            calculated;
        value           nonuniform List<scalar> 4(3.7503553e-06 1.1465321e-06 1.1462958e-06 3.750033e-06);
    }
    right
    {
        type            calculated;
        value           nonuniform List<scalar> 4(3.0578584e-06 1.0570531e-06 1.0569597e-06 3.0578883e-06);
    }
    top
    {
        type            calculated;
        value           nonuniform List<scalar> 
40
(
3.8824193e-06
4.3568283e-06
4.0532888e-06
3.6988929e-06
3.3338903e-06
2.9818879e-06
2.6459716e-06
2.3265671e-06
2.0235666e-06
1.7367978e-06
1.4660745e-06
1.211204e-06
9.719959e-07
7.4828407e-07
5.399892e-07
3.4736312e-07
1.7260102e-07
5.7403242e-08
1.6460587e-07
2.9773409e-07
4.2054576e-07
5.3106242e-07
6.2908434e-07
7.1473064e-07
7.882114e-07
8.4976815e-07
8.9965517e-07
9.3813597e-07
9.6548297e-07
9.8196661e-07
9.8782508e-07
9.8323728e-07
9.6833848e-07
9.4329484e-07
9.0856076e-07
8.6647701e-07
8.3441436e-07
8.9203043e-07
1.616609e-06
3.1097166e-06
)
;
    }
    bottom
    {
        type            calculated;
        value           nonuniform List<scalar> 
40
(
3.8826729e-06
4.3571297e-06
4.0536107e-06
3.6992265e-06
3.334228e-06
2.982226e-06
2.6463078e-06
2.3268997e-06
2.0238937e-06
1.7371178e-06
1.4663858e-06
1.2115051e-06
9.722854e-07
7.4856068e-07
5.4025146e-07
3.47609e-07
1.7282207e-07
5.7396091e-08
1.644187e-07
2.975542e-07
4.2038089e-07
5.3091374e-07
6.2895194e-07
7.1461397e-07
7.881096e-07
8.4968023e-07
8.9958006e-07
9.3807005e-07
9.6541889e-07
9.8189512e-07
9.877422e-07
9.8315203e-07
9.682618e-07
9.4322784e-07
9.0848973e-07
8.6638736e-07
8.3431896e-07
8.9196379e-07
1.6165817e-06
3.1096973e-06
)
;
    }
    frontAndBack
    {
        type            empty;
    }
}


// ************************************************************************* //
