/*--------------------------------*- C++ -*----------------------------------*\
| =========                 |                                                 |
| \\      /  F ield         | OpenFOAM: The Open Source CFD Toolbox           |
|  \\    /   O peration     | Version:  2512                                  |
|   \\  /    A nd           | Website:  www.openfoam.com                      |
|    \\/     M anipulation  |                                                 |
\*---------------------------------------------------------------------------*/
FoamFile
{
    version     2.0;
    format      ascii;
    arch        "LSB;label=32;scalar=64";
    class       pointVectorField;
    location    "0.2";
    object      pointD;
}
// * * * * * * * * * * * * * * * * * * * * * * * * * * * * * * * * * * * * * //

dimensions      [0 1 0 0 0 0 0];

internalField   nonuniform List<vector> 
410
(
(-5.2074064e-08 -2.7264569e-08 0)
(-1.7558623e-07 -1.1177421e-07 0)
(-3.141935e-07 -2.5798712e-07 0)
(-4.4314695e-07 -4.6763069e-07 0)
(-5.6082796e-07 -7.3803128e-07 0)
(-6.6689846e-07 -1.0636646e-06 0)
(-7.6177143e-07 -1.4388672e-06 0)
(-8.4595799e-07 -1.85817e-06 0)
(-9.199827e-07 -2.3163631e-06 0)
(-9.8436652e-07 -2.808499e-06 0)
(-1.0396247e-06 -3.3298901e-06 0)
(-1.0862661e-06 -3.8761051e-06 0)
(-1.124793e-06 -4.4429658e-06 0)
(-1.1557001e-06 -5.0265438e-06 0)
(-1.1794749e-06 -5.6231563e-06 0)
(-1.1965965e-06 -6.2293625e-06 0)
(-1.2075359e-06 -6.8419591e-06 0)
(-1.2127554e-06 -7.4579767e-06 0)
(-1.2127086e-06 -8.0746746e-06 0)
(-1.2078399e-06 -8.689537e-06 0)
(-1.1985849e-06 -9.300268e-06 0)
(-1.1853699e-06 -9.9047872e-06 0)
(-1.168612e-06 -1.0501225e-05 0)
(-1.1487195e-06 -1.1087919e-05 0)
(-1.1260912e-06 -1.1663406e-05 0)
(-1.1011174e-06 -1.2226424e-05 0)
(-1.0741792e-06 -1.27759e-05 0)
(-1.0456492e-06 -1.3310951e-05 0)
(-1.0158913e-06 -1.3830879e-05 0)
(-9.8526058e-07 -1.4335165e-05 0)
(-9.5410352e-07 -1.4823464e-05 0)
(-9.2275871e-07 -1.5295602e-05 0)
(-8.9155861e-07 -1.5751571e-05 0)
(-8.6083131e-07 -1.6191529e-05 0)
(-8.3089997e-07 -1.66158e-05 0)
(-8.0207378e-07 -1.7024875e-05 0)
(-7.7458741e-07 -1.7419388e-05 0)
(-7.4812028e-07 -1.7799884e-05 0)
(-7.198086e-07 -1.8164877e-05 0)
(-6.6840187e-07 -1.8502997e-05 0)
(-5.694551e-07 -1.8726631e-05 0)
(0 0 0)
(-7.7090052e-08 -8.1353437e-08 0)
(-1.4890998e-07 -2.2746432e-07 0)
(-2.1438226e-07 -4.3967418e-07 0)
(-2.7364526e-07 -7.1274977e-07 0)
(-3.2700836e-07 -1.0409718e-06 0)
(-3.7475439e-07 -1.4186412e-06 0)
(-4.1715276e-07 -1.8402905e-06 0)
(-4.5446709e-07 -2.3007118e-06 0)
(-4.8695768e-07 -2.7949594e-06 0)
(-5.148818e-07 -3.3183469e-06 0)
(-5.384936e-07 -3.8664446e-06 0)
(-5.5804389e-07 -4.435076e-06 0)
(-5.7377985e-07 -5.0203141e-06 0)
(-5.8594492e-07 -5.6184779e-06 0)
(-5.9477852e-07 -6.2261286e-06 0)
(-6.0051596e-07 -6.8400648e-06 0)
(-6.0338827e-07 -7.4573189e-06 0)
(-6.0362213e-07 -8.0751523e-06 0)
(-6.0143973e-07 -8.6910511e-06 0)
(-5.9705879e-07 -9.3027216e-06 0)
(-5.9069246e-07 -9.9080855e-06 0)
(-5.8254936e-07 -1.0505275e-05 0)
(-5.7283355e-07 -1.109263e-05 0)
(-5.6174461e-07 -1.166869e-05 0)
(-5.4947766e-07 -1.2232193e-05 0)
(-5.362234e-07 -1.2782069e-05 0)
(-5.2216819e-07 -1.3317438e-05 0)
(-5.0749403e-07 -1.3837603e-05 0)
(-4.9237868e-07 -1.4342047e-05 0)
(-4.769958e-07 -1.4830426e-05 0)
(-4.6151537e-07 -1.530257e-05 0)
(-4.4610424e-07 -1.5758469e-05 0)
(-4.3092671e-07 -1.6198284e-05 0)
(-4.161453e-07 -1.6622336e-05 0)
(-4.0192475e-07 -1.7031112e-05 0)
(-3.8844998e-07 -1.7425232e-05 0)
(-3.7599081e-07 -1.7805297e-05 0)
(-3.6502852e-07 -1.8171111e-05 0)
(-3.56161e-07 -1.8516493e-05 0)
(-3.4253127e-07 -1.8823928e-05 0)
(0 0 0)
(-5.2647007e-12 -7.0575514e-08 0)
(-1.0990167e-11 -2.1699021e-07 0)
(-1.6800934e-11 -4.3019669e-07 0)
(-2.2608138e-11 -7.0423122e-07 0)
(-2.8393717e-11 -1.0333317e-06 0)
(-3.4146112e-11 -1.411827e-06 0)
(-3.9848354e-11 -1.8342596e-06 0)
(-4.5476955e-11 -2.2954245e-06 0)
(-5.1006837e-11 -2.7903768e-06 0)
(-5.641098e-11 -3.3144307e-06 0)
(-6.1664289e-11 -3.8631569e-06 0)
(-6.6741587e-11 -4.4323794e-06 0)
(-7.1621106e-11 -5.018172e-06 0)
(-7.6281719e-11 -5.6168541e-06 0)
(-8.0706354e-11 -6.2249875e-06 0)
(-8.487876e-11 -6.8393714e-06 0)
(-8.8786869e-11 -7.4570389e-06 0)
(-9.2419351e-11 -8.0752521e-06 0)
(-9.5768998e-11 -8.6914977e-06 0)
(-9.8829386e-11 -9.3034827e-06 0)
(-1.0159841e-10 -9.9091294e-06 0)
(-1.0407564e-10 -1.0506571e-05 0)
(-1.0626656e-10 -1.1094147e-05 0)
(-1.081823e-10 -1.1670399e-05 0)
(-1.0984476e-10 -1.2234065e-05 0)
(-1.1128658e-10 -1.2784076e-05 0)
(-1.1254753e-10 -1.3319552e-05 0)
(-1.1365787e-10 -1.3839797e-05 0)
(-1.1463686e-10 -1.4344295e-05 0)
(-1.1551681e-10 -1.4832703e-05 0)
(-1.1639423e-10 -1.5304848e-05 0)
(-1.1742977e-10 -1.5760725e-05 0)
(-1.187516e-10 -1.6200492e-05 0)
(-1.2029258e-10 -1.6624469e-05 0)
(-1.217844e-10 -1.7033129e-05 0)
(-1.2292661e-10 -1.7427035e-05 0)
(-1.2361246e-10 -1.7806609e-05 0)
(-1.2408335e-10 -1.817138e-05 0)
(-1.2445782e-10 -1.8518742e-05 0)
(-1.243748e-10 -1.8857514e-05 0)
(0 0 0)
(7.7079592e-08 -8.1350681e-08 0)
(1.4888864e-07 -2.2746079e-07 0)
(2.1434983e-07 -4.3967049e-07 0)
(2.7360169e-07 -7.1274608e-07 0)
(3.2695362e-07 -1.0409682e-06 0)
(3.7468852e-07 -1.4186376e-06 0)
(4.1707583e-07 -1.8402869e-06 0)
(4.5437925e-07 -2.3007083e-06 0)
(4.8685909e-07 -2.7949559e-06 0)
(5.1477271e-07 -3.3183435e-06 0)
(5.383743e-07 -3.8664413e-06 0)
(5.5791471e-07 -4.4350728e-06 0)
(5.7364118e-07 -5.020311e-06 0)
(5.8579717e-07 -5.618475e-06 0)
(5.9462216e-07 -6.2261258e-06 0)
(6.0035146e-07 -6.8400622e-06 0)
(6.0321616e-07 -7.4573164e-06 0)
(6.0344292e-07 -8.07515e-06 0)
(6.0125399e-07 -8.6910491e-06 0)
(5.9686706e-07 -9.3027198e-06 0)
(5.9049531e-07 -9.9080838e-06 0)
(5.8234735e-07 -1.0505274e-05 0)
(5.7262724e-07 -1.1092628e-05 0)
(5.6153453e-07 -1.1668688e-05 0)
(5.492643e-07 -1.2232192e-05 0)
(5.3600719e-07 -1.2782068e-05 0)
(5.2194949e-07 -1.3317437e-05 0)
(5.0727312e-07 -1.3837603e-05 0)
(4.9215577e-07 -1.4342047e-05 0)
(4.7677098e-07 -1.4830427e-05 0)
(4.6128856e-07 -1.530257e-05 0)
(4.4587518e-07 -1.5758469e-05 0)
(4.3069501e-07 -1.6198283e-05 0)
(4.1591066e-07 -1.6622335e-05 0)
(4.0168722e-07 -1.7031111e-05 0)
(3.8820992e-07 -1.7425233e-05 0)
(3.7574882e-07 -1.7805298e-05 0)
(3.6478512e-07 -1.8171112e-05 0)
(3.5591657e-07 -1.8516494e-05 0)
(3.4228656e-07 -1.8823931e-05 0)
(5.2070614e-08 -2.7262313e-08 0)
(1.7557472e-07 -1.1176873e-07 0)
(3.141724e-07 -2.5798041e-07 0)
(4.4311563e-07 -4.6762367e-07 0)
(5.6078603e-07 -7.3802421e-07 0)
(6.6684579e-07 -1.0636576e-06 0)
(7.6170801e-07 -1.4388602e-06 0)
(8.4588388e-07 -1.858163e-06 0)
(9.1989801e-07 -2.3163562e-06 0)
(9.8427143e-07 -2.8084923e-06 0)
(1.0395194e-06 -3.3298835e-06 0)
(1.086151e-06 -3.8760987e-06 0)
(1.1246682e-06 -4.4429597e-06 0)
(1.1555662e-06 -5.0265379e-06 0)
(1.1793321e-06 -5.6231507e-06 0)
(1.1964454e-06 -6.2293571e-06 0)
(1.2073768e-06 -6.8419541e-06 0)
(1.2125889e-06 -7.457972e-06 0)
(1.2125352e-06 -8.0746703e-06 0)
(1.2076601e-06 -8.689533e-06 0)
(1.1983992e-06 -9.3002643e-06 0)
(1.1851789e-06 -9.9047839e-06 0)
(1.1684163e-06 -1.0501222e-05 0)
(1.1485196e-06 -1.1087916e-05 0)
(1.1258876e-06 -1.1663404e-05 0)
(1.1009105e-06 -1.2226422e-05 0)
(1.0739695e-06 -1.2775898e-05 0)
(1.0454371e-06 -1.331095e-05 0)
(1.0156771e-06 -1.3830878e-05 0)
(9.8504433e-07 -1.4335164e-05 0)
(9.5388499e-07 -1.4823464e-05 0)
(9.2253754e-07 -1.5295602e-05 0)
(8.9133472e-07 -1.575157e-05 0)
(8.6060498e-07 -1.6191527e-05 0)
(8.306715e-07 -1.6615797e-05 0)
(8.0184304e-07 -1.7024873e-05 0)
(7.7435381e-07 -1.7419388e-05 0)
(7.4788364e-07 -1.7799885e-05 0)
(7.1956984e-07 -1.8164877e-05 0)
(6.6816224e-07 -1.8502997e-05 0)
(5.6921485e-07 -1.8726633e-05 0)
(-5.2074064e-08 -2.7264569e-08 0)
(-1.7558623e-07 -1.1177421e-07 0)
(-3.141935e-07 -2.5798712e-07 0)
(-4.4314695e-07 -4.6763069e-07 0)
(-5.6082796e-07 -7.3803128e-07 0)
(-6.6689846e-07 -1.0636646e-06 0)
(-7.6177143e-07 -1.4388672e-06 0)
(-8.4595799e-07 -1.85817e-06 0)
(-9.199827e-07 -2.3163631e-06 0)
(-9.8436652e-07 -2.808499e-06 0)
(-1.0396247e-06 -3.3298901e-06 0)
(-1.0862661e-06 -3.8761051e-06 0)
(-1.124793e-06 -4.4429658e-06 0)
(-1.1557001e-06 -5.0265438e-06 0)
(-1.1794749e-06 -5.6231563e-06 0)
(-1.1965965e-06 -6.2293625e-06 0)
(-1.2075359e-06 -6.8419591e-06 0)
(-1.2127554e-06 -7.4579767e-06 0)
(-1.2127086e-06 -8.0746746e-06 0)
(-1.2078399e-06 -8.689537e-06 0)
(-1.1985849e-06 -9.300268e-06 0)
(-1.1853699e-06 -9.9047872e-06 0)
(-1.168612e-06 -1.0501225e-05 0)
(-1.1487195e-06 -1.1087919e-05 0)
(-1.1260912e-06 -1.1663406e-05 0)
(-1.1011174e-06 -1.2226424e-05 0)
(-1.0741792e-06 -1.27759e-05 0)
(-1.0456492e-06 -1.3310951e-05 0)
(-1.0158913e-06 -1.3830879e-05 0)
(-9.8526058e-07 -1.4335165e-05 0)
(-9.5410352e-07 -1.4823464e-05 0)
(-9.2275871e-07 -1.5295602e-05 0)
(-8.9155861e-07 -1.5751571e-05 0)
(-8.6083131e-07 -1.6191529e-05 0)
(-8.3089997e-07 -1.66158e-05 0)
(-8.0207378e-07 -1.7024875e-05 0)
(-7.7458741e-07 -1.7419388e-05 0)
(-7.4812028e-07 -1.7799884e-05 0)
(-7.198086e-07 -1.8164877e-05 0)
(-6.6840187e-07 -1.8502997e-05 0)
(-5.694551e-07 -1.8726631e-05 0)
(0 0 0)
(-7.7090052e-08 -8.1353437e-08 0)
(-1.4890998e-07 -2.2746432e-07 0)
(-2.1438226e-07 -4.3967418e-07 0)
(-2.7364526e-07 -7.1274977e-07 0)
(-3.2700836e-07 -1.0409718e-06 0)
(-3.7475439e-07 -1.4186412e-06 0)
(-4.1715276e-07 -1.8402905e-06 0)
(-4.5446709e-07 -2.3007118e-06 0)
(-4.8695768e-07 -2.7949594e-06 0)
(-5.148818e-07 -3.3183469e-06 0)
(-5.384936e-07 -3.8664446e-06 0)
(-5.5804389e-07 -4.435076e-06 0)
(-5.7377985e-07 -5.0203141e-06 0)
(-5.8594492e-07 -5.6184779e-06 0)
(-5.9477852e-07 -6.2261286e-06 0)
(-6.0051596e-07 -6.8400648e-06 0)
(-6.0338827e-07 -7.4573189e-06 0)
(-6.0362213e-07 -8.0751523e-06 0)
(-6.0143973e-07 -8.6910511e-06 0)
(-5.9705879e-07 -9.3027216e-06 0)
(-5.9069246e-07 -9.9080855e-06 0)
(-5.8254936e-07 -1.0505275e-05 0)
(-5.7283355e-07 -1.109263e-05 0)
(-5.6174461e-07 -1.166869e-05 0)
(-5.4947766e-07 -1.2232193e-05 0)
(-5.362234e-07 -1.2782069e-05 0)
(-5.2216819e-07 -1.3317438e-05 0)
(-5.0749403e-07 -1.3837603e-05 0)
(-4.9237868e-07 -1.4342047e-05 0)
(-4.769958e-07 -1.4830426e-05 0)
(-4.6151537e-07 -1.530257e-05 0)
(-4.4610424e-07 -1.5758469e-05 0)
(-4.3092671e-07 -1.6198284e-05 0)
(-4.161453e-07 -1.6622336e-05 0)
(-4.0192475e-07 -1.7031112e-05 0)
(-3.8844998e-07 -1.7425232e-05 0)
(-3.7599081e-07 -1.7805297e-05 0)
(-3.6502852e-07 -1.8171111e-05 0)
(-3.56161e-07 -1.8516493e-05 0)
(-3.4253127e-07 -1.8823928e-05 0)
(0 0 0)
(-5.2647007e-12 -7.0575514e-08 0)
(-1.0990167e-11 -2.1699021e-07 0)
(-1.6800934e-11 -4.3019669e-07 0)
(-2.2608138e-11 -7.0423122e-07 0)
(-2.8393717e-11 -1.0333317e-06 0)
(-3.4146112e-11 -1.411827e-06 0)
(-3.9848354e-11 -1.8342596e-06 0)
(-4.5476955e-11 -2.2954245e-06 0)
(-5.1006837e-11 -2.7903768e-06 0)
(-5.641098e-11 -3.3144307e-06 0)
(-6.1664289e-11 -3.8631569e-06 0)
(-6.6741587e-11 -4.4323794e-06 0)
(-7.1621106e-11 -5.018172e-06 0)
(-7.6281719e-11 -5.6168541e-06 0)
(-8.0706354e-11 -6.2249875e-06 0)
(-8.487876e-11 -6.8393714e-06 0)
(-8.8786869e-11 -7.4570389e-06 0)
(-9.2419351e-11 -8.0752521e-06 0)
(-9.5768998e-11 -8.6914977e-06 0)
(-9.8829386e-11 -9.3034827e-06 0)
(-1.0159841e-10 -9.9091294e-06 0)
(-1.0407564e-10 -1.0506571e-05 0)
(-1.0626656e-10 -1.1094147e-05 0)
(-1.081823e-10 -1.1670399e-05 0)
(-1.0984476e-10 -1.2234065e-05 0)
(-1.1128658e-10 -1.2784076e-05 0)
(-1.1254753e-10 -1.3319552e-05 0)
(-1.1365787e-10 -1.3839797e-05 0)
(-1.1463686e-10 -1.4344295e-05 0)
(-1.1551681e-10 -1.4832703e-05 0)
(-1.1639423e-10 -1.5304848e-05 0)
(-1.1742977e-10 -1.5760725e-05 0)
(-1.187516e-10 -1.6200492e-05 0)
(-1.2029258e-10 -1.6624469e-05 0)
(-1.217844e-10 -1.7033129e-05 0)
(-1.2292661e-10 -1.7427035e-05 0)
(-1.2361246e-10 -1.7806609e-05 0)
(-1.2408335e-10 -1.817138e-05 0)
(-1.2445782e-10 -1.8518742e-05 0)
(-1.243748e-10 -1.8857514e-05 0)
(0 0 0)
(7.7079592e-08 -8.1350681e-08 0)
(1.4888864e-07 -2.2746079e-07 0)
(2.1434983e-07 -4.3967049e-07 0)
(2.7360169e-07 -7.1274608e-07 0)
(3.2695362e-07 -1.0409682e-06 0)
(3.7468852e-07 -1.4186376e-06 0)
(4.1707583e-07 -1.8402869e-06 0)
(4.5437925e-07 -2.3007083e-06 0)
(4.8685909e-07 -2.7949559e-06 0)
(5.1477271e-07 -3.3183435e-06 0)
(5.383743e-07 -3.8664413e-06 0)
(5.5791471e-07 -4.4350728e-06 0)
(5.7364118e-07 -5.020311e-06 0)
(5.8579717e-07 -5.618475e-06 0)
(5.9462216e-07 -6.2261258e-06 0)
(6.0035146e-07 -6.8400622e-06 0)
(6.0321616e-07 -7.4573164e-06 0)
(6.0344292e-07 -8.07515e-06 0)
(6.0125399e-07 -8.6910491e-06 0)
(5.9686706e-07 -9.3027198e-06 0)
(5.9049531e-07 -9.9080838e-06 0)
(5.8234735e-07 -1.0505274e-05 0)
(5.7262724e-07 -1.1092628e-05 0)
(5.6153453e-07 -1.1668688e-05 0)
(5.492643e-07 -1.2232192e-05 0)
(5.3600719e-07 -1.2782068e-05 0)
(5.2194949e-07 -1.3317437e-05 0)
(5.0727312e-07 -1.3837603e-05 0)
(4.9215577e-07 -1.4342047e-05 0)
(4.7677098e-07 -1.4830427e-05 0)
(4.6128856e-07 -1.530257e-05 0)
(4.4587518e-07 -1.5758469e-05 0)
(4.3069501e-07 -1.6198283e-05 0)
(4.1591066e-07 -1.6622335e-05 0)
(4.0168722e-07 -1.7031111e-05 0)
(3.8820992e-07 -1.7425233e-05 0)
(3.7574882e-07 -1.7805298e-05 0)
(3.6478512e-07 -1.8171112e-05 0)
(3.5591657e-07 -1.8516494e-05 0)
(3.4228656e-07 -1.8823931e-05 0)
(5.2070614e-08 -2.7262313e-08 0)
(1.7557472e-07 -1.1176873e-07 0)
(3.141724e-07 -2.5798041e-07 0)
(4.4311563e-07 -4.6762367e-07 0)
(5.6078603e-07 -7.3802421e-07 0)
(6.6684579e-07 -1.0636576e-06 0)
(7.6170801e-07 -1.4388602e-06 0)
(8.4588388e-07 -1.858163e-06 0)
(9.1989801e-07 -2.3163562e-06 0)
(9.8427143e-07 -2.8084923e-06 0)
(1.0395194e-06 -3.3298835e-06 0)
(1.086151e-06 -3.8760987e-06 0)
(1.1246682e-06 -4.4429597e-06 0)
(1.1555662e-06 -5.0265379e-06 0)
(1.1793321e-06 -5.6231507e-06 0)
(1.1964454e-06 -6.2293571e-06 0)
(1.2073768e-06 -6.8419541e-06 0)
(1.2125889e-06 -7.457972e-06 0)
(1.2125352e-06 -8.0746703e-06 0)
(1.2076601e-06 -8.689533e-06 0)
(1.1983992e-06 -9.3002643e-06 0)
(1.1851789e-06 -9.9047839e-06 0)
(1.1684163e-06 -1.0501222e-05 0)
(1.1485196e-06 -1.1087916e-05 0)
(1.1258876e-06 -1.1663404e-05 0)
(1.1009105e-06 -1.2226422e-05 0)
(1.0739695e-06 -1.2775898e-05 0)
(1.0454371e-06 -1.331095e-05 0)
(1.0156771e-06 -1.3830878e-05 0)
(9.8504433e-07 -1.4335164e-05 0)
(9.5388499e-07 -1.4823464e-05 0)
(9.2253754e-07 -1.5295602e-05 0)
(8.9133472e-07 -1.575157e-05 0)
(8.6060498e-07 -1.6191527e-05 0)
(8.306715e-07 -1.6615797e-05 0)
(8.0184304e-07 -1.7024873e-05 0)
(7.7435381e-07 -1.7419388e-05 0)
(7.4788364e-07 -1.7799885e-05 0)
(7.1956984e-07 -1.8164877e-05 0)
(6.6816224e-07 -1.8502997e-05 0)
(5.6921485e-07 -1.8726633e-05 0)
)
;

boundaryField
{
    left
    {
        type            calculated;
    }
    right
    {
        type            calculated;
    }
    top
    {
        type            calculated;
    }
    bottom
    {
        type            calculated;
    }
    frontAndBack
    {
        type            empty;
    }
}


// ************************************************************************* //
