/*--------------------------------*- C++ -*----------------------------------*\
| =========                 |                                                 |
| \\      /  F ield         | OpenFOAM: The Open Source CFD Toolbox           |
|  \\    /   O peration     | Version:  2512                                  |
|   \\  /    A nd           | Website:  www.openfoam.com                      |
|    \\/     M anipulation  |                                                 |
\*---------------------------------------------------------------------------*/
FoamFile
{
    version     2.0;
    format      ascii;
    arch        "LSB;label=32;scalar=64";
    class       volSymmTensorField;
    location    "0.2";
    object      sigma;
}
// * * * * * * * * * * * * * * * * * * * * * * * * * * * * * * * * * * * * * //

dimensions      [1 -1 -2 0 0 0 0];

internalField   nonuniform List<symmTensor> 
160
(
(-742878.8 -23527.442 -9.9420747e-12 51852.152 1.9884149e-11 -125641.21)
(-778882.46 -43914.001 3.5791469e-10 56104.549 -1.9884149e-10 -131414.17)
(-717746.36 -42777.254 -7.9536597e-11 60423.021 1.5907319e-10 -119513.33)
(-653195.64 -42351.968 0 55056.756 1.5907319e-10 -108752.52)
(-588551.09 -41204.046 0 49627.078 0 -97986.184)
(-526476.25 -39945.821 1.5907319e-10 44409.241 -3.1814639e-10 -87648.548)
(-467276.23 -38661.211 0 39463.446 6.3629278e-10 -77784.143)
(-410984.6 -37374.795 -1.5907319e-10 34768.485 0 -68402.93)
(-357577.13 -36090.883 1.5907319e-10 30315.876 6.3629278e-10 -59502.046)
(-307021.99 -34810.566 -4.7721958e-10 26101.266 -6.3629278e-10 -51076.496)
(-259284.36 -33534.263 3.1814639e-10 22121.415 1.2725856e-09 -43120.535)
(-214326.8 -32262.311 6.3629278e-10 18373.141 -5.0903422e-09 -35627.939)
(-172109.4 -30994.962 9.5443917e-10 14853.115 -2.5451711e-09 -28592.051)
(-132589.92 -29732.48 -6.3629278e-10 11557.822 -3.8177567e-09 -22005.837)
(-95724.108 -28475.065 -3.1814639e-10 8483.5858 -2.5451711e-09 -15861.913)
(-61465.943 -27222.923 -3.1814639e-10 5626.5821 2.5451711e-09 -10152.611)
(-29767.916 -25976.196 3.1814639e-10 2982.8703 -2.5451711e-09 -4870.0082)
(-581.36347 -24735.026 9.5443917e-10 548.40528 -2.5451711e-09 -5.9923974)
(26143.297 -23499.49 6.3629278e-10 -1680.9248 -1.0180684e-08 4447.704)
(50456.223 -22269.658 -6.3629278e-10 -3709.2905 0 8499.4423)
(72407.929 -21045.545 3.1814639e-10 -5540.8836 5.0903422e-09 12157.645)
(92048.967 -19827.164 -3.1814639e-10 -7179.9127 2.5451711e-09 15430.737)
(109429.76 -18614.492 -9.5443917e-10 -8630.5684 -2.5451711e-09 18327.125)
(124600.32 -17407.518 -9.5443917e-10 -9897.0251 -2.0361369e-08 20855.144)
(137610.15 -16206.234 0 -10983.411 -1.2725856e-08 23023.044)
(148508.07 -15010.674 -3.1814639e-10 -11893.85 5.0903422e-09 24838.95)
(157342.33 -13821.064 -3.1814639e-10 -12632.414 -1.0180684e-08 26310.894)
(164160.9 -12637.806 -6.3629278e-10 -13203.194 -5.0903422e-09 27446.855)
(169011.96 -11461.402 0 -13610.019 -5.0903422e-09 28254.899)
(171942.81 -10290.963 -1.5907319e-10 -13856.218 0 28743.017)
(172996.1 -9123.7396 -6.3629278e-10 -13944.639 0 28918.448)
(172206.21 -7956.4307 3.1814639e-10 -13877.529 1.0180684e-08 28787.032)
(169598.9 -6789.9709 6.3629278e-10 -13655.881 -5.0903422e-09 28353.275)
(165201.07 -5636.4539 0 -13272.657 2.0361369e-08 27623.348)
(159065.72 -4533.4462 -4.7721958e-10 -12687.447 -1.0180684e-08 26614.231)
(151423.35 -3610.7809 4.7721958e-10 -11783.433 3.0542053e-08 25389.077)
(144097.49 -3530.2688 4.7721958e-10 -10314.103 -1.5271027e-08 24324.251)
(145129.98 -5994.9774 0 -11551.381 -1.5271027e-08 24287.018)
(221101.59 -25355.569 3.1814639e-10 -25068.636 5.0903422e-09 35642.355)
(347956.61 12453.427 -1.5907319e-10 -339336.24 -2.5451711e-08 1567.3406)
(-295517.36 -115144.87 -3.4797261e-11 -25138.163 0 -58301.005)
(-265462.35 -102372 -9.9420747e-11 20930.508 -1.9884149e-10 -44460.335)
(-241494.32 -95618.296 -1.5907319e-10 21366.231 -1.5907319e-10 -40023.289)
(-218649.32 -90956.942 -3.9768299e-11 19088.698 3.1814639e-10 -36283.75)
(-196924.21 -87261.465 -1.193049e-10 17006.769 -9.5443917e-10 -32712.261)
(-176201.04 -83791.458 -1.5907319e-10 15202.482 9.5443917e-10 -29272.465)
(-156459.96 -80382.65 -3.9768299e-10 13537.568 6.3629278e-10 -25985.889)
(-137689.32 -77002.679 -1.5907319e-10 11966.674 -6.3629278e-10 -22858.663)
(-119879.16 -73648.54 -4.7721958e-10 10478.024 3.1814639e-09 -19891.115)
(-103018.86 -70322.044 -3.9768299e-10 9068.5974 3.1814639e-09 -17081.866)
(-87096.936 -67025.537 -7.9536597e-11 7737.0853 -1.2725856e-09 -14429.064)
(-72100.989 -63761.246 -6.3629278e-10 6482.4223 -2.5451711e-09 -11930.648)
(-58017.785 -60531.192 -5.5675618e-10 5303.523 1.2725856e-09 -9584.4113)
(-44833.32 -57337.188 -3.1814639e-10 4199.2508 -1.0180684e-08 -7388.0126)
(-32532.921 -54180.817 -2.3860979e-10 3168.4167 1.145327e-08 -5339.0008)
(-21101.321 -51063.435 -7.9536597e-10 2209.7865 0 -3434.8244)
(-10522.771 -47986.151 -7.1582938e-10 1322.0861 -7.6355133e-09 -1672.8518)
(-781.11995 -44949.839 -5.5675618e-10 504.00901 2.5451711e-09 -50.383806)
(8140.074 -41955.126 -3.1814639e-10 -245.77687 0 1435.3267)
(16257.465 -39002.408 -7.1582938e-10 -928.62178 2.5451711e-09 2787.0623)
(23587.81 -36091.859 -4.7721958e-10 -1545.8881 -5.0903422e-09 4007.6221)
(30147.902 -33223.458 -4.7721958e-10 -2098.9443 -2.5451711e-09 5099.8105)
(35954.472 -30397.014 -6.3629278e-10 -2589.1585 -7.6355133e-09 6066.4207)
(41024.133 -27612.207 -5.5675618e-10 -3017.8955 -1.0180684e-08 6910.2251)
(45373.311 -24868.641 -7.1582938e-10 -3386.5132 -7.6355133e-09 7633.9633)
(49018.23 -22165.962 -3.1814639e-10 -3696.4013 -1.5271027e-08 8240.3324)
(51974.94 -19504.015 -4.7721958e-10 -3948.9765 1.5271027e-08 8731.9933)
(54259.418 -16882.929 -2.3860979e-10 -4145.7597 2.0361369e-08 9111.5742)
(55887.461 -14302.205 -3.1814639e-10 -4288.0825 0 9381.7051)
(56874.227 -11758.733 -5.5675618e-10 -4376.714 0 9545.0024)
(57233.308 -9245.8076 -7.1582938e-10 -4411.7461 0 9603.9204)
(56976.332 -6755.8557 -3.1814639e-10 -4392.7276 -2.0361369e-08 9560.6554)
(56113.23 -4286.554 -6.3629278e-10 -4318.5804 -5.0903422e-09 9417.2091)
(54653.635 -1840.6884 0 -4179.5887 -1.0180684e-08 9177.0994)
(52602.846 604.67757 -2.3860979e-10 -3917.3441 5.0903422e-09 8851.9094)
(49943.816 3235.0778 -3.1814639e-10 -3268.0389 0 8486.505)
(46548.334 7008.981 -7.9536597e-11 -1368.3378 -1.5271027e-08 8214.5447)
(41976.418 15671.753 -2.3860979e-10 3386.1815 -1.0180684e-08 8247.7454)
(32866.007 43379.99 -3.5791469e-10 -2162.3659 -5.0903422e-09 5582.4801)
(22417.721 80362.84 -3.9768299e-10 -129778.76 5.0903422e-09 -19520.188)
(295436.75 -115140.52 -7.456556e-12 25130.616 2.9826224e-11 58284.976)
(265379.51 -102369.73 2.9826224e-11 -20925.283 -1.5907319e-10 44446.223)
(241410.87 -95615.253 -1.9884149e-11 -21357.632 0 40009.68)
(218565.75 -90952.59 3.9768299e-11 -19079.509 7.9536597e-10 36270.226)
(196840.73 -87255.821 3.9768299e-11 -16997.651 -1.2725856e-09 32698.741)
(176117.9 -83784.63 -7.9536597e-11 -15193.509 3.1814639e-10 29258.979)
(156377.46 -80374.726 0 -13528.724 -9.5443917e-10 25972.497)
(137607.85 -76993.718 -7.9536597e-11 -11957.943 -6.3629278e-10 22845.437)
(119799.1 -73638.591 -1.5907319e-10 -10469.408 0 19878.125)
(102940.61 -70311.146 3.9768299e-10 -9060.1102 -6.3629278e-10 17069.182)
(87020.872 -67013.737 7.9536597e-11 -7728.7546 0 14416.749)
(72027.472 -63748.584 0 -6474.2853 2.5451711e-09 11918.761)
(57947.135 -60517.718 -3.1814639e-10 -5295.6271 2.5451711e-09 9573.0014)
(44765.833 -57322.947 -2.3860979e-10 -4191.6443 -6.3629278e-09 7377.1252)
(32468.846 -54165.862 -3.1814639e-10 -3161.1489 1.3998441e-08 5328.6723)
(21040.885 -51047.814 2.3860979e-10 -2202.9001 -7.6355133e-09 3425.0881)
(10466.152 -47969.921 -7.9536597e-11 -1315.6197 0 1663.7331)
(728.47288 -44933.05 3.1814639e-10 -497.9918 0 41.905651)
(-8188.6394 -41937.835 -7.9536597e-11 251.32193 -5.0903422e-09 -1443.1486)
(-16301.862 -38984.669 -1.5907319e-10 933.6829 7.6355133e-09 -2794.2144)
(-23628.003 -36073.729 -1.5907319e-10 1550.4612 5.0903422e-09 -4014.0985)
(-30183.89 -33204.992 1.5907319e-10 2103.0363 -5.0903422e-09 -5105.6098)
(-35986.33 -30378.269 -7.9536597e-11 2592.7848 -2.5451711e-09 -6071.5537)
(-41052.021 -27593.231 -7.9536597e-11 3021.0921 -1.0180684e-08 -6914.7143)
(-45397.528 -24849.481 1.5907319e-10 3389.3285 2.5451711e-09 -7637.8544)
(-49039.237 -22146.657 -7.9536597e-11 3698.8479 5.0903422e-09 -8243.7071)
(-51993.363 -19484.653 0 3950.836 -5.0903422e-09 -8735.0048)
(-54275.955 -16863.703 -7.9536597e-11 4146.2202 0 -9114.4972)
(-55902.848 -14283.252 -7.1582938e-10 4285.8962 1.5271027e-08 -9384.9004)
(-56889.247 -11740.027 -1.5907319e-10 4371.3019 -1.0180684e-08 -9548.7172)
(-57248.919 -9226.9649 1.5907319e-10 4404.8381 0 -9608.0148)
(-56993.478 -6736.5269 0 4388.6284 0 -9564.518)
(-56132.64 -4267.1295 -7.9536597e-11 4320.7487 0 -9420.3438)
(-54674.726 -1822.1026 -1.5907319e-10 4186.4427 -5.0903422e-09 -9179.6879)
(-52623.836 621.89617 0 3922.4447 1.0180684e-08 -8854.7984)
(-49962.45 3251.2516 7.9536597e-11 3265.7289 -1.5271027e-08 -8490.3129)
(-46562.695 7024.9425 -7.9536597e-11 1359.641 5.0903422e-09 -8218.7371)
(-41987.305 15687.567 0 -3395.4067 -1.5271027e-08 -8251.4021)
(-32874.279 43394.372 -1.9884149e-10 2155.232 5.0903422e-09 -5585.2813)
(-22421.339 80372.367 -1.5907319e-10 129764.32 5.0903422e-09 19516.905)
(742809.9 -23525.166 1.5907319e-10 -51848.725 -4.9710373e-11 125629.31)
(778806.69 -43912.151 1.5907319e-10 -56099.143 -1.5907319e-10 131401.37)
(717667.79 -42774.474 3.1814639e-10 -60415.952 7.9536597e-11 119500.33)
(653115.47 -42347.689 -7.9536597e-11 -55049.337 3.1814639e-10 108739.3)
(588470.38 -41198.417 1.5907319e-10 -49619.589 -3.1814639e-10 97972.872)
(526395.61 -39938.992 4.7721958e-10 -44401.773 -6.3629278e-10 87635.243)
(467196.09 -38653.285 9.5443917e-10 -39456.036 -1.9088783e-09 77770.92)
(410905.38 -37365.829 -4.7721958e-10 -34761.162 0 68389.858)
(357499.23 -36080.931 3.1814639e-10 -30308.664 2.5451711e-09 59489.194)
(306945.8 -34799.663 4.7721958e-10 -26094.192 -1.9088783e-09 51063.929)
(259210.25 -33522.461 3.1814639e-10 -22114.504 0 43108.318)
(214255.13 -32249.644 1.2725856e-09 -18366.426 0 35616.128)
(172040.48 -30981.486 6.3629278e-10 -14846.626 2.5451711e-09 28580.7)
(132524.04 -29718.234 0 -11551.592 2.5451711e-09 21994.99)
(95661.518 -28460.107 2.5451711e-09 -8477.6457 8.9080989e-09 15851.613)
(61406.857 -27207.297 6.3629278e-10 -5620.9611 5.0903422e-09 10142.89)
(29712.526 -25959.963 -3.1814639e-10 -2977.5909 0 4860.8972)
(529.80987 -24718.233 3.1814639e-10 -543.48926 5.0903422e-09 -2.4871627)
(-26190.891 -23482.197 3.1814639e-10 1685.4649 0 -4455.532)
(-50499.788 -22251.915 1.2725856e-09 3713.4439 5.0903422e-09 -8506.608)
(-72447.417 -21027.414 1.5907319e-09 5544.6495 2.5451711e-09 -12164.139)
(-92084.396 -19808.695 -3.1814639e-10 7183.2928 0 -15436.564)
(-109461.2 -18595.749 2.2270247e-09 8633.5732 -7.6355133e-09 -18332.295)
(-124627.93 -17388.541 1.2725856e-09 9899.6732 -7.6355133e-09 -20859.684)
(-137634.2 -16187.069 6.3629278e-10 10985.727 -1.0180684e-08 -23026.995)
(-148528.89 -14991.341 9.5443917e-10 11895.841 5.0903422e-09 -24842.373)
(-157360.34 -13801.647 0 12634 -2.5451711e-08 -26313.881)
(-164176.91 -12618.584 3.1814639e-10 13204.028 -1.0180684e-08 -27449.615)
(-169027.27 -11442.557 9.5443917e-10 13609.637 -1.5271027e-08 -28257.752)
(-171958.95 -10272.48 3.1814639e-10 13854.58 -1.5271027e-08 -28746.249)
(-173013.93 -9104.9963 7.9536597e-10 13942.78 2.5451711e-08 -28922.028)
(-172224.9 -7936.8219 -7.9536597e-10 13877.438 -1.0180684e-08 -28790.447)
(-169617.43 -6770.0734 4.7721958e-10 13658.625 1.5271027e-08 -28356.146)
(-165219.17 -5617.6763 1.5907319e-10 13276.968 -5.0903422e-09 -27625.855)
(-159084.52 -4516.5673 7.9536597e-10 12690.248 -5.0903422e-09 -26617.14)
(-151443.86 -3595.2207 9.5443917e-10 11782.421 -5.0903422e-09 -25392.989)
(-144117.02 -3514.412 0 10310.418 -1.5271027e-08 -24328.473)
(-145143.97 -5978.6032 6.3629278e-10 11548.223 -2.5451711e-08 -24290.135)
(-221109.05 -25340.687 -3.1814639e-10 25067.176 -5.0903422e-09 -35643.977)
(-347959.27 12461.938 4.7721958e-10 339339.34 -1.0180684e-08 -1567.2597)
)
;

boundaryField
{
    left
    {
        type            calculated;
        value           nonuniform List<symmTensor> 4((-932593.03 -61408.757 0 -2176.0538 0 -169958.02) (-272724 -91306.339 0 -60605.334 0 -60605.334) (272646.59 -91300.281 0 60588.131 0 60588.131) (932513.5 -61399.063 0 2175.3507 0 169943.43));
    }
    right
    {
        type            calculated;
        value           nonuniform List<symmTensor> 4((59279.187 5169.5633 0 -718633.87 0 -119882.67) (20466.832 7740.7572 0 -248061.38 0 -41380.827) (-20464.992 7740.7147 0 248039.41 0 41377.166) (-59279.774 5169.5162 0 718640.88 0 119883.84));
    }
    top
    {
        type            calculated;
        value           nonuniform List<symmTensor> 
40
(
(912078.28 -435.67933 0 -75786.602 0 152053.03)
(1023551.1 -834.84448 0 -85018.401 0 170642.32)
(952258.2 -1331.0979 0 -79070.372 0 158761.42)
(869012.49 -1850.4298 0 -72134.392 0 144886.93)
(783271.44 -2366.4187 0 -64993.485 0 130595.99)
(700580.7 -2873.6116 0 -58108.106 0 116813.2)
(621664.67 -3369.5838 0 -51538.341 0 103659.33)
(546622.53 -3852.4767 0 -45292.368 0 91150.938)
(475427.7 -4320.5655 0 -39367.913 0 79283.597)
(408037.91 -4772.2333 0 -33761.392 0 68050.276)
(344406.51 -5205.9818 0 -28468.849 0 57443.21)
(284483.4 -5620.442 0 -23486.039 0 47454.066)
(228215.22 -6014.3814 0 -18808.44 0 38073.96)
(175545.5 -6386.7097 0 -14431.268 0 29293.496)
(126415.06 -6736.4823 0 -10349.515 0 21102.826)
(80762.373 -7062.9022 0 -6557.9731 0 13491.709)
(38523.947 -7365.3197 0 -3051.2727 0 6449.5772)
(-365.29576 -7643.2316 0 176.08681 0 -34.401626)
(-35971.605 -7896.2773 0 3129.7017 0 -5971.2552)
(-68362.045 -8124.2343 0 5815.2331 0 -11372.148)
(-97604.099 -8327.0115 0 8238.3736 0 -16248.314)
(-123765.35 -8504.6422 0 10404.82 0 -20611.006)
(-146913.18 -8657.2745 0 12320.245 0 -24471.442)
(-167114.43 -8785.1619 0 13990.276 0 -27840.756)
(-184435.25 -8888.6522 0 15420.471 0 -30729.96)
(-198940.75 -8968.1761 0 16616.298 0 -33149.9)
(-210695.26 -9024.2345 0 17583.156 0 -35111.292)
(-219763.41 -9057.3877 0 18326.459 0 -36624.899)
(-226210.83 -9068.2469 0 18851.702 0 -37701.659)
(-230102.09 -9057.4692 0 19164.283 0 -38352.328)
(-231493.73 -9025.7464 0 19268.925 0 -38586.328)
(-230428.06 -8973.779 0 19169.153 0 -38410.711)
(-226936.89 -8902.2502 0 18867.611 0 -37830.778)
(-221059.04 -8811.8379 0 18367.527 0 -36853.003)
(-212901 -8703.2694 0 17677.735 0 -35495.139)
(-203013.56 -8576.8543 0 16843.73 0 -33849.06)
(-195491.2 -8427.8818 0 16203.252 0 -32597.81)
(-209112.9 -8207.0274 0 17305.102 0 -34874.145)
(-379688.65 -7684.7081 0 31350.575 0 -63334.195)
(-730822.6 -5116.09 0 60286.903 0 -121915.58)
)
;
    }
    bottom
    {
        type            calculated;
        value           nonuniform List<symmTensor> 
40
(
(-912137.8 -435.6132 0 75791.607 0 -152062.94)
(-1023621.9 -834.82023 0 85024.351 0 -170654.1)
(-952333.74 -1331.0934 0 79076.724 0 -158774)
(-869090.79 -1850.431 0 72140.974 0 -144899.97)
(-783350.72 -2366.4217 0 65000.149 0 -130609.19)
(-700660.08 -2873.6155 0 58114.779 0 -116826.42)
(-621743.61 -3369.5885 0 51544.976 0 -103672.48)
(-546700.61 -3852.4822 0 45298.929 0 -91163.941)
(-475504.5 -4320.5718 0 39374.365 0 -79296.389)
(-408113.06 -4772.2403 0 33767.703 0 -68062.792)
(-344479.61 -5205.9896 0 28474.987 0 -57455.387)
(-284554.14 -5620.4504 0 23491.976 0 -47465.849)
(-228283.26 -6014.3904 0 18814.148 0 -38085.294)
(-175610.57 -6386.7192 0 14436.726 0 -29304.336)
(-126476.91 -6736.4922 0 10354.699 0 -21113.128)
(-80820.786 -7062.9122 0 6562.8671 0 -13501.44)
(-38578.729 -7365.3298 0 3055.86 0 -6458.7035)
(314.2784 -7643.2416 0 -171.81741 0 25.901997)
(35924.482 -7896.2871 0 -3125.7609 0 5963.4039)
(68318.879 -8124.2436 0 -5811.626 0 11364.955)
(97564.942 -8327.0204 0 -8235.1043 0 16241.789)
(123730.18 -8504.6505 0 -10401.886 0 20605.144)
(146881.91 -8657.282 0 -12317.64 0 24466.231)
(167086.91 -8785.1685 0 -13987.985 0 27836.168)
(184411.25 -8888.6577 0 -15418.477 0 30725.958)
(198920.03 -8968.1806 0 -16614.58 0 33146.445)
(210677.56 -9024.2387 0 -17581.692 0 35108.34)
(219747.87 -9057.393 0 -18325.176 0 36622.308)
(226195.73 -9068.2531 0 -18850.455 0 37699.141)
(230085.25 -9057.4735 0 -19162.89 0 38349.52)
(231474.21 -9025.7424 0 -19267.307 0 38583.073)
(230407.99 -8973.7637 0 -19167.488 0 38407.364)
(226918.83 -8902.2311 0 -18866.113 0 37827.767)
(221043.27 -8811.8281 0 -18366.218 0 36850.372)
(212884.27 -8703.2751 0 -17676.344 0 35492.35)
(202992.44 -8576.8666 0 -16841.97 0 33845.541)
(195468.73 -8427.8847 0 -16201.377 0 32594.065)
(209097.21 -8207.02 0 -17303.793 0 34871.531)
(379682.24 -7684.7069 0 -31350.041 0 63333.127)
(730818.06 -5116.1056 0 -60286.524 0 121914.82)
)
;
    }
    frontAndBack
    {
        type            empty;
    }
}


// ************************************************************************* //
