/*--------------------------------*- C++ -*----------------------------------*\
| =========                 |                                                 |
| \\      /  F ield         | OpenFOAM: The Open Source CFD Toolbox           |
|  \\    /   O peration     | Version:  2512                                  |
|   \\  /    A nd           | Website:  www.openfoam.com                      |
|    \\/     M anipulation  |                                                 |
\*---------------------------------------------------------------------------*/
FoamFile
{
    version     2.0;
    format      ascii;
    arch        "LSB;label=32;scalar=64";
    class       volScalarField;
    location    "0.2";
    object      sigmaHyd;
}
// * * * * * * * * * * * * * * * * * * * * * * * * * * * * * * * * * * * * * //

dimensions      [1 -1 -2 0 0 0 0];

internalField   nonuniform List<scalar> 
160
(
-272222.62
-284730.69
-258945.56
-235630.47
-212303.4
-189905.19
-168532.31
-148206.35
-128921.1
-110665.74
-93427.826
-77193.867
-61949.444
-47679.312
-34367.478
-21997.324
-10551.684
-12.983528
9636.6921
18415.458
26341.563
33433.264
39708.771
45186.145
49883.261
53817.725
57006.937
59468.186
61218.947
62276.538
62656.638
62371.904
61432.097
59850.588
57664.167
55009.666
52702.545
52621.872
77225.103
3395.9046
-126318.84
-96330.725
-86717.126
-78614.791
-70876.566
-63423.675
-56302.759
-49527.103
-43097.416
-37010.709
-31262.971
-25849.738
-20766.225
-16007.361
-11567.835
-7442.1196
-3624.5123
-109.16491
3109.8746
6038.635
8683.1812
11049.589
13143.912
14972.154
16540.254
17854.054
18919.319
19741.744
20327.028
20680.839
20808.494
20714.753
20403.953
19883.715
19179.137
18387.427
17798.18
17870.115
12095.374
-42293.741
126284.12
96300.151
86687.64
78585.49
70847.272
63394.455
56273.744
49498.447
43069.271
36983.227
31236.289
25823.983
20741.503
15983.771
11545.457
7421.0242
3604.755
90.795577
-3126.822
-6054.1312
-8697.2134
-11062.155
-13155.033
-14981.881
-16548.685
-17861.365
-18925.844
-19748.077
-20333.951
-20688.887
-20817.365
-20723.122
-20410.745
-19889.324
-19185.397
-18395.678
-17807.264
-17878.038
-12101.443
42286.628
272196.83
284702.97
258917.39
235601.81
212274.56
189876.36
168503.66
148178.03
128893.25
110638.51
93401.356
77168.277
61924.851
47655.812
34345.162
21976.262
10531.944
-5.3888525
-9653.6528
-18430.984
-26355.635
-33445.889
-39719.973
-45195.982
-49891.822
-53825.141
-57013.408
-59474.165
-61225.129
-62283.54
-62664.394
-62379.302
-61438.317
-59856.02
-57670.47
-55018.143
-52711.691
-52628.626
-77228.617
-3395.7293
)
;

boundaryField
{
    left
    {
        type            zeroGradient;
    }
    right
    {
        type            zeroGradient;
    }
    top
    {
        type            zeroGradient;
    }
    bottom
    {
        type            zeroGradient;
    }
    frontAndBack
    {
        type            empty;
    }
}


// ************************************************************************* //
