/*--------------------------------*- C++ -*----------------------------------*\
| =========                 |                                                 |
| \\      /  F ield         | OpenFOAM: The Open Source CFD Toolbox           |
|  \\    /   O peration     | Version:  2512                                  |
|   \\  /    A nd           | Website:  www.openfoam.com                      |
|    \\/     M anipulation  |                                                 |
\*---------------------------------------------------------------------------*/
FoamFile
{
    version     2.0;
    format      ascii;
    arch        "LSB;label=32;scalar=64";
    class       surfaceSymmTensorField;
    location    "0.2";
    object      sigmaf;
}
// * * * * * * * * * * * * * * * * * * * * * * * * * * * * * * * * * * * * * //

dimensions      [1 -1 -2 0 0 0 0];

internalField   nonuniform List<symmTensor> 
276
(
(-905171.01 -42256.237 0 -28185.119 0 -215389.88)
(-621858.9 -112689.18 0 -17128.268 0 -147458.58)
(-822389.56 -43386.678 0 -2534.3943 0 -190367.07)
(-573545.83 -83585.505 0 3378.6891 0 -131577.03)
(-746263.79 -43930.89 0 -227.08879 0 -172267.13)
(-522932.24 -77458.307 0 2819.8544 0 -120025.94)
(-674078.65 -43102.636 0 28.48522 0 -155550.04)
(-473669.43 -74039.603 0 1448.6684 0 -108974.02)
(-605165.2 -41865.13 0 -7.1616861 0 -139655.16)
(-426594.21 -71284.483 0 1035.1931 0 -98205.928)
(-539437.98 -40534.273 0 -23.541993 0 -124491.12)
(-381688.07 -68604.551 0 934.01713 0 -87866.32)
(-476872.13 -39187.74 0 -25.759138 0 -110053.36)
(-338913.78 -65939.4 0 910.58548 0 -78000.737)
(-417441.33 -37842.342 0 -22.598322 0 -96337.83)
(-298244.36 -63286.49 0 901.06386 0 -68617.684)
(-361115.65 -36500.209 0 -17.897207 0 -83338.51)
(-259656.41 -60649.848 0 894.19788 0 -59714.356)
(-307859 -35163.166 0 -12.315313 0 -71047.226)
(-223127.05 -58031.974 0 886.33027 0 -51286.32)
(-257633.54 -33830.567 0 -6.3759405 0 -59455.365)
(-188630.83 -55435.092 0 878.71267 0 -43327.411)
(-210396.78 -32503.879 0 0.089208403 0 -48553.082)
(-156141.35 -52860.641 0 869.71874 0 -35831.915)
(-166105.11 -31182.231 0 6.7767113 0 -38330.385)
(-125629.41 -50310.26 0 861.09574 0 -28792.687)
(-124711.1 -29867.129 0 13.870333 0 -28776.284)
(-97065.18 -47785.041 0 851.11424 0 -22203.246)
(-86166.631 -28557.533 0 21.106875 0 -19879.736)
(-70416.288 -45286.268 0 841.69263 0 -16055.676)
(-50420.543 -27254.978 0 28.642828 0 -11628.9)
(-45650.222 -42814.734 0 830.96438 0 -10342.906)
(-17421.431 -25958.257 0 36.249364 0 -4011.9649)
(-22732.228 -40371.365 0 820.9914 0 -5056.4392)
(12884.323 -24668.911 0 44.052177 0 2983.4711)
(-1627.9197 -37956.642 0 809.78131 0 -188.80117)
(40550.163 -23385.575 0 51.858429 0 9369.6972)
(17698.993 -35571.124 0 799.51178 0 4268.8858)
(65630.929 -22109.78 0 59.763882 0 15159.391)
(35283.953 -33214.984 0 788.08027 0 8324.3154)
(88180.904 -20840.022 0 67.612582 0 20365.042)
(51163.966 -30888.433 0 777.7526 0 11986.55)
(108255.01 -19577.829 0 75.472055 0 24999.342)
(65374.754 -28591.38 0 766.32847 0 15263.327)
(125907.32 -18321.612 0 83.222734 0 29074.74)
(77953.302 -26323.756 0 756.1335 0 18163.716)
(141191.91 -17072.913 0 90.905301 0 32603.726)
(88934.953 -24085.293 0 744.88545 0 20695.347)
(154161.84 -15830.138 0 98.437266 0 35598.526)
(98356.08 -21875.77 0 734.91921 0 22867.154)
(164869.88 -14594.898 0 105.80216 0 38071.312)
(106251.24 -19694.932 0 723.91126 0 24686.574)
(173367.96 -13366.045 0 112.94845 0 40034.055)
(112655.94 -17542.796 0 713.96416 0 26162.285)
(179708.02 -12145.516 0 119.71661 0 41498.708)
(117604.2 -15419.574 0 703.0948 0 27301.684)
(183941.02 -10932.593 0 126.20883 0 42477.053)
(121130.64 -13325.192 0 692.81004 0 28113.104)
(186115.49 -9726.138 0 132.73305 0 42980.36)
(123267.92 -11257.407 0 682.97319 0 28604.051)
(186273.96 -8521.4912 0 140.07673 0 43018.624)
(124045.98 -9211.2323 0 675.16305 0 28781.801)
(184454.3 -7316.231 0 150.54141 0 42601.117)
(123490.04 -7181.6347 0 669.99778 0 28652.317)
(180693.87 -6115.5643 0 170.09987 0 41737.838)
(121621.14 -5171.1786 0 669.71652 0 28220.968)
(175053.41 -4947.7804 0 224.46974 0 40448.742)
(118456.84 -3197.8867 0 685.04983 0 27494.281)
(167625.46 -3909.436 0 394.82851 0 38773.913)
(114000.4 -1301.5461 0 786.77673 0 26489.349)
(158562.32 -3425.3875 0 812.98115 0 36778.916)
(108191.98 465.42648 0 1312.7649 0 25270.325)
(147872.2 -5334.6833 0 1057.6525 0 34368.427)
(100778.33 2246.0349 0 3683.3056 0 24106.531)
(133988.02 -15599.578 0 -9679.425 0 28686.599)
(91293.588 5619.6604 0 11984.238 0 23833.345)
(100891.87 -45273.099 0 -77705.185 0 5350.7728)
(80203.44 25078.132 0 30877.585 0 25634.083)
(93857.803 93542.483 0 -50600.323 0 9982.4954)
(-304526.79 -105824.73 0 -5134.6474 0 -71460.331)
(-43.686581 -111111.14 0 -5.2299202 0 -11.288423)
(-276668.99 -99855.564 0 792.10532 0 -63663.898)
(-45.771049 -111430.73 0 0.10893654 0 -10.537411)
(-250148.65 -94447.803 0 775.35473 0 -57547.683)
(-46.003272 -103974.55 0 1.6095475 0 -10.244706)
(-225612.61 -90416.656 0 464.63114 0 -51957.226)
(-45.987732 -98572.579 0 1.5663374 0 -10.251091)
(-202506.06 -86809.036 0 369.2462 0 -46646.958)
(-45.804982 -94386.655 0 1.5988241 0 -10.201421)
(-180558.42 -83315.073 0 346.27265 0 -41587.418)
(-45.617271 -90546.992 0 1.3396474 0 -10.217913)
(-159687.97 -79860.389 0 340.79783 0 -36772.425)
(-45.18215 -86803.073 0 1.4526224 0 -10.091429)
(-139868.08 -76432.775 0 338.26226 0 -32199.189)
(-44.649996 -83098.738 0 1.2626962 0 -10.012454)
(-121083.48 -73032.516 0 336.03124 0 -27864.795)
(-43.802775 -79425.352 0 1.4542816 0 -9.7727292)
(-103321.85 -69661.817 0 333.57338 0 -23766.526)
(-42.848624 -75783.719 0 1.2817088 0 -9.592365)
(-86569.618 -66323.061 0 330.9726 0 -19901.226)
(-41.575382 -72176.186 0 1.5036511 0 -9.2473226)
(-70813.284 -63018.388 0 328.14075 0 -16265.802)
(-40.22759 -68605.199 0 1.3026334 0 -8.9826823)
(-56037.712 -59749.805 0 325.18949 0 -12856.736)
(-38.581087 -65073.027 0 1.516895 0 -8.553275)
(-42227.766 -56519.013 0 322.05176 0 -9670.5495)
(-36.905891 -61581.713 0 1.2633826 0 -8.2251942)
(-29366.927 -53327.561 0 318.82587 0 -6703.4079)
(-34.960293 -58133.054 0 1.4559501 0 -7.7317715)
(-17438.733 -50176.671 0 315.46469 0 -3951.5235)
(-33.033861 -54728.577 0 1.1512896 0 -7.3575165)
(-6425.6722 -47067.403 0 312.05236 0 -1410.8354)
(-30.867033 -51369.546 0 1.32612 0 -6.8171338)
(3689.6376 -44000.482 0 308.5586 0 922.66067)
(-28.764836 -48056.941 0 0.98341222 0 -6.4110978)
(12925.293 -40976.473 0 305.05115 0 3053.1563)
(-26.452254 -44791.481 0 1.1497366 0 -5.8390426)
(21299.188 -37995.621 0 301.51432 0 4984.7774)
(-24.247475 -41573.605 0 0.78542475 0 -5.4143193)
(28829.607 -35058.041 0 297.99729 0 6721.7548)
(-21.865487 -38403.52 0 0.95557949 0 -4.8253632)
(35534.574 -32163.574 0 294.49449 0 8268.2465)
(-19.641339 -35281.193 0 0.58844782 0 -4.3968209)
(41432.213 -29311.993 0 291.0357 0 9628.4421)
(-17.294893 -32206.416 0 0.77475651 0 -3.8123392)
(46540.347 -26502.87 0 287.6189 0 10806.454)
(-15.199613 -29178.813 0 0.42125837 0 -3.4103895)
(50876.68 -23735.82 0 284.25062 0 11806.369)
(-13.104057 -26197.94 0 0.65188733 0 -2.8735776)
(54458.663 -21010.509 0 280.84465 0 12632.194)
(-11.432922 -23263.372 0 0.33883793 0 -2.5601732)
(57303.56 -18326.883 0 277.30064 0 13287.891)
(-9.9338718 -20374.917 0 0.51253447 0 -2.1741548)
(59428.538 -15685.225 0 273.26068 0 13777.338)
(-8.9629965 -17532.632 0 -0.26757907 0 -2.1301328)
(60850.024 -13084.096 0 268.85982 0 14104.358)
(-8.3017711 -14735.767 0 -1.5661805 0 -2.2772196)
(61583.302 -10518.737 0 264.67517 0 14272.61)
(-8.306124 -11980.65 0 -4.2218238 0 -2.8910649)
(61640.741 -7980.4568 0 261.80504 0 14285.203)
(-8.8675853 -9259.6445 0 -6.160709 0 -3.4680679)
(61031.198 -5462.4228 0 260.98078 0 14144.349)
(-9.9355935 -6563.5529 0 -5.5042771 0 -3.563047)
(59754.552 -2964.9919 0 261.69146 0 13849.902)
(-10.746311 -3886.3471 0 -0.57221251 0 -2.611967)
(57781.889 -485.73804 0 271.8521 0 13397.017)
(-11.147192 -1217.2092 0 3.935348 0 -1.6642716)
(54970.171 2052.0994 0 353.70685 0 12767.049)
(-10.739163 1518.7182 0 3.9846604 0 -1.5587313)
(50742.581 5079.0948 0 798.30479 0 11894.051)
(-9.5179784 4701.1356 0 -1.2675533 0 -2.4889689)
(43043.548 10453.117 0 2422.0395 0 10492.059)
(-7.4947312 9949.1901 0 -6.6932176 0 -3.274142)
(25697.66 24098.614 0 5560.2569 0 7213.3655)
(-5.9936977 22940.143 0 -7.4217788 0 -3.0958792)
(-7429.0789 56569.675 0 -20216.282 0 -6379.6987)
(-4.3655508 58019.81 0 -4.565917 0 -2.061108)
(-1.2042043 85496.802 0 -6.2279198 0 -1.7151056)
(304434.94 -105822.22 0 5129.1439 0 71437.865)
(621773.05 -112681.88 0 17121.042 0 147437.1)
(276576.09 -99853.004 0 -791.75339 0 63642.538)
(573458.79 -83581.086 0 -3378.5535 0 131556.98)
(250056.26 -94444.189 0 -773.55566 0 57526.777)
(522844.15 -77452.031 0 -2818.1336 0 120006)
(225520.26 -90411.604 0 -462.79984 0 51936.337)
(473580.75 -74030.841 0 -1446.9015 0 108953.97)
(202414.37 -86802.849 0 -367.42922 0 46626.217)
(426505.41 -71273.075 0 -1033.4635 0 98185.833)
(180467.08 -83307.632 0 -344.60684 0 41566.724)
(381599.48 -68590.907 0 -932.39721 0 87846.25)
(159597.85 -79852 0 -339.09041 0 36752.021)
(338825.83 -65923.477 0 -908.96095 0 77980.816)
(139779.09 -76423.246 0 -336.61579 0 32179.033)
(298157.44 -63268.595 0 -899.50317 0 68597.987)
(120996.53 -73022.15 0 -334.28567 0 27845.132)
(259570.99 -60629.884 0 -892.59378 0 59695.014)
(103236.92 -69650.388 0 -331.84067 0 23747.325)
(223043.52 -58010.202 0 -884.76119 0 51267.405)
(86487.521 -66310.896 0 -329.13708 0 19882.704)
(188549.63 -55411.429 0 -877.06874 0 43309.052)
(70734.002 -63005.237 0 -326.32695 0 16247.925)
(156062.83 -52835.333 0 -868.11426 0 35814.166)
(55961.955 -59736.022 0 -323.32 0 12839.685)
(125553.96 -50283.252 0 -859.42148 0 28775.662)
(42155.486 -56504.328 0 -320.2483 0 9654.2856)
(96993.067 -47756.567 0 -849.52347 0 22186.972)
(29298.698 -53312.354 0 -317.03141 0 6688.0769)
(70347.831 -45256.3 0 -840.06269 0 16040.254)
(17374.488 -50160.655 0 -313.78217 0 3937.0859)
(45585.608 -42783.493 0 -829.47445 0 10328.338)
(6365.8481 -47050.98 0 -310.43421 0 1397.4032)
(22671.705 -40338.85 0 -819.49349 0 5042.8181)
(-3745.1246 -43983.349 0 -307.08209 0 -935.12462)
(1571.5935 -37923.057 0 -808.47066 0 176.10526)
(-12976.138 -40959.048 0 -303.67333 0 -3064.5719)
(-17750.942 -35536.493 0 -798.21104 0 -4280.5738)
(-21345.492 -37977.59 0 -300.28273 0 -4995.1787)
(-35331.499 -33179.492 0 -786.99373 0 -8335.0368)
(-28871.204 -35039.835 0 -296.87071 0 -6731.0941)
(-51207.001 -30852.129 0 -776.67194 0 -11996.232)
(-35571.61 -32144.869 0 -293.49344 0 -8276.5623)
(-65413.352 -28554.429 0 -765.46849 0 -15272.036)
(-41464.712 -29293.227 0 -290.12317 0 -9635.7313)
(-77987.471 -26286.227 0 -755.26424 0 -18171.4)
(-46568.627 -26483.7 0 -286.78219 0 -10812.787)
(-88964.943 -24047.322 0 -744.24231 0 -20702.12)
(-50901.112 -23716.674 0 -283.4638 0 -11811.825)
(-98382.116 -21837.424 0 -734.21568 0 -22873)
(-54479.943 -20991.043 0 -280.20964 0 -12636.958)
(-106273.88 -19656.325 0 -723.45612 0 -24691.693)
(-57322.446 -18307.614 0 -277.32087 0 -13292.254)
(-112675.72 -17504.064 0 -713.59191 0 -26166.764)
(-59445.797 -15666.069 0 -275.28684 0 -13781.789)
(-117622.11 -15381.072 0 -704.02051 0 -27306.031)
(-60866.326 -13065.529 0 -274.27873 0 -14109.37)
(-121147.78 -13287.14 0 -696.48344 0 -28117.907)
(-61599.398 -10500.304 0 -273.38862 0 -14278.335)
(-123285.39 -11219.811 0 -690.18627 0 -28609.749)
(-61657.911 -7961.6847 0 -270.38663 0 -14291.146)
(-124064.48 -9173.4879 0 -683.82159 0 -28788.069)
(-61050.645 -5442.5734 0 -263.99949 0 -14149.533)
(-123509.31 -7143.2164 0 -674.34553 0 -28657.768)
(-59777.041 -2945.359 0 -257.46578 0 -13854.117)
(-121641.25 -5132.6216 0 -666.17485 0 -28224.79)
(-57805.495 -467.44971 0 -265.35553 0 -13400.965)
(-118477.84 -3160.8925 0 -676.89612 0 -27497.247)
(-54992.177 2068.5143 0 -353.11389 0 -12771.99)
(-114022.3 -1266.7274 0 -782.46077 0 -26493.407)
(-50759.457 5094.5829 0 -806.66777 0 -11899.875)
(-108214.15 498.41974 0 -1319.1129 0 -25276.907)
(-43054.651 10468.744 0 -2433.7815 0 -10497.331)
(-100797.89 2278.2726 0 -3696.9666 0 -24114.199)
(-25707.89 24114.171 0 -5569.3926 0 -7217.8343)
(-91307.85 5650.6805 0 -11994.233 0 -23838.942)
(7422.4262 56582.455 0 20209.088 0 6376.5033)
(-80212.749 25106.933 0 -30881.169 0 -25637.058)
(-93860.797 93561.995 0 50597.669 0 -9983.7987)
(905088.31 -42254.212 0 28182.112 0 215370.1)
(822306.43 -43384.579 0 2534.9704 0 190348.01)
(746178.96 -43927.462 0 228.30011 0 172247.83)
(673993.28 -43097.601 0 -27.076683 0 155530.66)
(605079.2 -41858.957 0 8.4252149 0 139635.61)
(539352.52 -40526.812 0 24.851488 0 124471.7)
(476787.05 -39179.363 0 26.935484 0 110034)
(417357.71 -37832.795 0 23.841362 0 96318.82)
(361033.32 -36489.856 0 19.03639 0 83319.775)
(307778.95 -35151.715 0 13.530769 0 71029.034)
(257555.62 -33818.416 0 7.5026463 0 59437.644)
(210321.86 -32490.7 0 1.1017167 0 48536.069)
(166033.04 -31168.467 0 -5.6785745 0 38314.007)
(124642.62 -29852.414 0 -12.737598 0 28760.742)
(86101.567 -28542.351 0 -20.079832 0 19864.958)
(50359.496 -27238.929 0 -27.614554 0 11615.05)
(17364.23 -25941.864 0 -35.336828 0 3998.9754)
(-12937.221 -24651.743 0 -43.165821 0 -2995.4739)
(-40598.934 -23368.185 0 -51.088627 0 -9380.7745)
(-65675.263 -22091.712 0 -59.035705 0 -15169.454)
(-88220.993 -20821.856 0 -66.989864 0 -20374.15)
(-108290.71 -19559.088 0 -74.893919 0 -25007.448)
(-125938.9 -18302.897 0 -82.733121 0 -29081.916)
(-141219.47 -17053.697 0 -90.449491 0 -32609.98)
(-154185.83 -15811.043 0 -98.062093 0 -35603.975)
(-164890.67 -14575.344 0 -105.53254 0 -38076.047)
(-173386.36 -13346.873 0 -113.08525 0 -40038.333)
(-179724.99 -12126.628 0 -120.84715 0 -41502.885)
(-183957.99 -10914.449 0 -128.83703 0 -42481.577)
(-186133.52 -9707.8948 0 -136.46144 0 -42985.38)
(-186293.52 -8502.0222 0 -143.14956 0 -43023.846)
(-184474.45 -7295.2176 0 -150.74093 0 -42605.813)
(-180715.45 -6095.3964 0 -167.82315 0 -41742.294)
(-175074.87 -4930.2256 0 -221.93386 0 -40453.109)
(-167648.6 -3894.761 0 -395.89867 0 -38779.5)
(-158585.63 -3410.918 0 -818.30473 0 -36785.524)
(-147892.29 -5317.8488 0 -1063.9558 0 -34374.518)
(-134000.91 -15582.489 0 9675.7262 0 -28690.428)
(-100901.86 -45259.694 0 77702.441 0 -5353.7119)
)
;

boundaryField
{
    left
    {
        type            calculated;
        value           nonuniform List<symmTensor> 4((-1017572 -61408.757 0 -87155.062 0 -254937.02) (-303026.67 -91306.339 0 -90908 0 -90908) (302940.66 -91300.281 0 90882.197 0 90882.197) (1017485.2 -61399.063 0 87147.065 0 254915.14));
    }
    right
    {
        type            calculated;
        value           nonuniform List<symmTensor> 4((-662.14754 5169.5633 0 -778575.21 0 -179824) (-223.58143 7740.7572 0 -268751.79 0 -62071.24) (223.59145 7740.7147 0 268727.99 0 62065.749) (662.14492 5169.5162 0 778582.8 0 179825.76));
    }
    top
    {
        type            calculated;
        value           nonuniform List<symmTensor> 
40
(
(988104.79 -435.67933 0 239.91423 0 228079.55)
(1108872.3 -834.84448 0 302.75683 0 255963.47)
(1031638.9 -1331.0979 0 310.33946 0 238142.13)
(941455.95 -1850.4298 0 309.07194 0 217330.39)
(848569.44 -2366.4187 0 304.51176 0 195893.99)
(758987.3 -2873.6116 0 298.49289 0 175219.8)
(673494.33 -3369.5838 0 291.32461 0 155489)
(592197.99 -3852.4767 0 283.10063 0 136726.41)
(515069.5 -4320.5655 0 273.88523 0 118925.4)
(442063.05 -4772.2333 0 263.74607 0 102075.41)
(373128.11 -5205.9818 0 252.75634 0 86164.816)
(308210.44 -5620.442 0 240.99394 0 71181.1)
(247252.2 -6014.3814 0 228.5404 0 57110.94)
(190192.24 -6386.7097 0 215.47987 0 43940.244)
(136966.47 -6736.4823 0 201.89808 0 31654.239)
(87508.227 -7062.9022 0 187.88143 0 20237.564)
(41748.736 -7365.3197 0 173.51586 0 9674.3658)
(-382.49657 -7643.2316 0 158.886 0 -51.602439)
(-38957.233 -7896.2773 0 144.07413 0 -8956.8828)
(-74048.119 -8124.2343 0 129.15934 0 -17058.221)
(-105728.26 -8327.0115 0 114.21673 0 -24372.471)
(-134070.86 -8504.6422 0 99.316625 0 -30916.509)
(-159148.9 -8657.2745 0 84.523967 0 -36707.163)
(-181034.81 -8785.1619 0 69.897758 0 -41761.134)
(-199800.23 -8888.6522 0 55.490633 0 -46094.94)
(-215515.7 -8968.1761 0 41.348503 0 -49724.85)
(-228250.91 -9024.2345 0 27.510526 0 -52666.938)
(-238075.85 -9057.3877 0 14.009501 0 -54937.349)
(-245061.66 -9068.2469 0 0.872292 0 -56552.489)
(-249278.25 -9057.4692 0 -11.880873 0 -57528.492)
(-250786.89 -9025.7464 0 -24.238982 0 -57879.492)
(-249633.42 -8973.779 0 -36.202157 0 -57616.066)
(-245852.28 -8902.2502 0 -47.778156 0 -56746.166)
(-239485.54 -8811.8379 0 -58.974457 0 -55279.504)
(-230648.57 -8703.2694 0 -69.83467 0 -53242.709)
(-219938.09 -8576.8543 0 -80.800288 0 -50773.59)
(-211790.11 -8427.8818 0 -95.653248 0 -48896.714)
(-226549.97 -8207.0274 0 -131.97111 0 -52311.218)
(-411355.75 -7684.7081 0 -316.52238 0 -95001.293)
(-791780.39 -5116.09 0 -670.88748 0 -182873.37)
)
;
    }
    bottom
    {
        type            calculated;
        value           nonuniform List<symmTensor> 
40
(
(-988169.27 -435.6132 0 -239.86499 0 -228094.42)
(-1108948.9 -834.82023 0 -302.69862 0 -255981.15)
(-1031720.7 -1331.0934 0 -310.27772 0 -238161.01)
(-941540.77 -1850.431 0 -309.00859 0 -217349.95)
(-848655.32 -2366.4217 0 -304.44849 0 -195913.79)
(-759073.29 -2873.6155 0 -298.4306 0 -175239.63)
(-673579.85 -3369.5885 0 -291.26394 0 -155508.72)
(-592282.58 -3852.4822 0 -283.04207 0 -136745.91)
(-515152.7 -4320.5718 0 -273.82928 0 -118944.58)
(-442144.45 -4772.2403 0 -263.69313 0 -102094.19)
(-373207.31 -5205.9896 0 -252.70681 0 -86183.08)
(-308287.07 -5620.4504 0 -240.94815 0 -71198.773)
(-247325.91 -6014.3904 0 -228.49863 0 -57127.941)
(-190262.74 -6386.7192 0 -215.44233 0 -43956.504)
(-137033.47 -6736.4922 0 -201.86495 0 -31669.693)
(-87571.506 -7062.9122 0 -187.85279 0 -20252.16)
(-41808.081 -7365.3298 0 -173.49177 0 -9688.0553)
(327.2294 -7643.2416 0 -158.86641 0 38.852996)
(38906.184 -7896.2871 0 -144.05898 0 8945.1058)
(74001.357 -8124.2436 0 -129.1485 0 17047.433)
(105685.84 -8327.0204 0 -114.21001 0 24362.683)
(134032.75 -8504.6505 0 -99.31378 0 30907.716)
(159115.02 -8657.282 0 -84.524702 0 36699.346)
(181004.99 -8785.1685 0 -69.901712 0 41754.251)
(199774.23 -8888.6577 0 -55.497403 0 46088.938)
(215493.25 -8968.1806 0 -41.357659 0 49719.667)
(228231.73 -9024.2387 0 -27.521618 0 52662.51)
(238059.03 -9057.393 0 -14.021823 0 54933.463)
(245045.3 -9068.2531 0 -0.88475128 0 56548.711)
(249260.01 -9057.4735 0 11.869583 0 57524.279)
(250765.75 -9025.7424 0 24.229668 0 57874.61)
(249611.67 -8973.7637 0 36.194283 0 57611.045)
(245832.72 -8902.2311 0 47.770936 0 56741.651)
(239468.45 -8811.8281 0 58.967983 0 55275.558)
(230630.44 -8703.2751 0 69.830533 0 53238.525)
(219915.21 -8576.8666 0 80.800099 0 50768.311)
(211765.77 -8427.8847 0 95.655695 0 48891.098)
(226532.98 -8207.02 0 131.97271 0 52307.296)
(411348.8 -7684.7069 0 316.52257 0 94999.69)
(791775.47 -5116.1056 0 670.88893 0 182872.24)
)
;
    }
    frontAndBack
    {
        type            empty;
    }
}


// ************************************************************************* //
