/*--------------------------------*- C++ -*----------------------------------*\
| =========                 |                                                 |
| \\      /  F ield         | OpenFOAM: The Open Source CFD Toolbox           |
|  \\    /   O peration     | Version:  2512                                  |
|   \\  /    A nd           | Website:  www.openfoam.com                      |
|    \\/     M anipulation  |                                                 |
\*---------------------------------------------------------------------------*/
FoamFile
{
    version     2.0;
    format      ascii;
    arch        "LSB;label=32;scalar=64";
    class       volScalarField;
    location    "0.2";
    object      sigmaEq;
}
// * * * * * * * * * * * * * * * * * * * * * * * * * * * * * * * * * * * * * //

dimensions      [1 -1 -2 0 0 0 0];

internalField   nonuniform List<scalar> 
160
(
723672.8
762611.44
709502.21
646388.19
583053.01
522251.51
464329.8
409318.71
357206.04
307982.36
261648.43
218224.43
177769.26
140424.45
106524.39
76908.949
53864.479
42853.494
47936.429
62525.809
79614.201
96401.929
111900.95
125730.71
137736.24
147858.12
156082.29
162418.38
166889.47
169525.19
170355.38
169405.3
166694.38
162239.95
156061.66
148292.14
140469.14
142569.46
226426.77
595610.09
324057.35
314657.66
290096.6
266909.78
245857.06
226193.93
207669.17
190226.54
173864.22
158593.43
144429.89
131392.24
119501.43
108779.43
99246.755
90918.152
83796.228
77863.41
73073.586
69346.041
66564.487
64582.803
63236.448
62356.357
61781.573
61368.29
60994.604
60561.742
59991.928
59224.802
58215.204
56933.972
55368.95
53517.256
51351.358
48739.993
45563.545
45409.732
81615.873
194715.98
323998.16
314589.22
290025.29
266837.74
245785.11
226122.54
207598.76
190157.58
173797.16
158528.78
144368.14
131333.89
119446.94
108729.27
99201.327
90877.775
83761.116
77833.608
73048.949
69326.201
66548.885
64570.734
63227.162
62349.153
61775.923
61363.881
60991.309
60559.315
59989.845
59222.955
58215.217
56939.636
55383.747
53539.749
51375.038
48758.617
45577.701
45429.203
81639.76
194720.42
723606.69
762537.7
709424.56
646308.56
582972.56
522170.86
464249.38
409238.88
357127.15
307904.73
261572.38
218150.22
177697.14
140354.68
106457.42
76846.092
53810.813
42823.324
47935.949
62540.857
79634.634
96423.36
111921.45
125749.42
137752.83
147872.56
156094.69
162429.12
166899.33
169535.42
170367.38
169419.64
166710.99
162257.79
156079.54
148309.15
140483.25
142577.95
226427.44
595615.61
)
;

boundaryField
{
    left
    {
        type            calculated;
        value           nonuniform List<scalar> 4(865466.61 264584.34 264529.8 865392.22);
    }
    right
    {
        type            calculated;
        value           nonuniform List<scalar> 4(705659.64 243935.34 243913.77 705666.53);
    }
    top
    {
        type            calculated;
        value           nonuniform List<scalar> 
40
(
895942.92
1005421.9
935374.35
853590.68
769359.3
688127.97
610608.82
536900.1
466976.9
400799.5
338324.89
279508.6
224306.75
172680.94
124612.89
80160.721
39831.005
13246.902
37985.97
68707.868
97049.022
122552.87
145173.31
164937.84
181894.94
196100.34
207612.73
216492.92
222803.76
226607.68
227959.63
226900.91
223462.73
217683.42
209667.87
199956.23
192557.16
205853.18
373063.61
717626.92
)
;
    }
    bottom
    {
        type            calculated;
        value           nonuniform List<scalar> 
40
(
896001.43
1005491.5
935448.61
853667.64
769437.23
688206
610686.42
536976.85
467052.39
400873.35
338396.72
279578.09
224373.55
172744.77
124673.41
80217.461
39882.017
13245.252
37942.777
68666.353
97010.976
122518.56
145142.75
164910.92
181871.45
196080.05
207595.4
216477.7
222788.97
226591.18
227940.51
226881.24
223445.03
217667.96
209651.48
199935.55
192535.15
205837.8
373057.32
717622.46
)
;
    }
    frontAndBack
    {
        type            empty;
    }
}


// ************************************************************************* //
