/*--------------------------------*- C++ -*----------------------------------*\
| =========                 |                                                 |
| \\      /  F ield         | OpenFOAM: The Open Source CFD Toolbox           |
|  \\    /   O peration     | Version:  2512                                  |
|   \\  /    A nd           | Website:  www.openfoam.com                      |
|    \\/     M anipulation  |                                                 |
\*---------------------------------------------------------------------------*/
FoamFile
{
    version     2.0;
    format      ascii;
    arch        "LSB;label=32;scalar=64";
    class       volVectorField;
    location    "0.6";
    object      D_0;
}
// * * * * * * * * * * * * * * * * * * * * * * * * * * * * * * * * * * * * * //

dimensions      [0 1 0 0 0 0 0];

internalField   nonuniform List<vector> 
160
(
(-7.7879119e-08 -4.2120645e-08 0)
(-2.2163371e-07 -1.7701639e-07 0)
(-3.5596566e-07 -3.9915118e-07 0)
(-4.8063143e-07 -7.0595448e-07 0)
(-5.9595164e-07 -1.0918907e-06 0)
(-7.0223028e-07 -1.5508634e-06 0)
(-7.9977547e-07 -2.0769399e-06 0)
(-8.8889443e-07 -2.6643962e-06 0)
(-9.6989363e-07 -3.3077171e-06 0)
(-1.0430787e-06 -4.0015928e-06 0)
(-1.1087541e-06 -4.7409172e-06 0)
(-1.1672234e-06 -5.5207871e-06 0)
(-1.2187886e-06 -6.3365016e-06 0)
(-1.2637504e-06 -7.1835606e-06 0)
(-1.3024081e-06 -8.0576644e-06 0)
(-1.3350593e-06 -8.9547124e-06 0)
(-1.3619998e-06 -9.8708018e-06 0)
(-1.3835239e-06 -1.0802227e-05 0)
(-1.3999237e-06 -1.1745477e-05 0)
(-1.4114896e-06 -1.2697237e-05 0)
(-1.4185098e-06 -1.3654384e-05 0)
(-1.4212704e-06 -1.4613986e-05 0)
(-1.4200553e-06 -1.5573302e-05 0)
(-1.4151464e-06 -1.652978e-05 0)
(-1.406823e-06 -1.7481054e-05 0)
(-1.3953623e-06 -1.8424945e-05 0)
(-1.3810388e-06 -1.9359456e-05 0)
(-1.3641249e-06 -2.0282775e-05 0)
(-1.3448902e-06 -2.1193269e-05 0)
(-1.3236017e-06 -2.2089484e-05 0)
(-1.300524e-06 -2.2970145e-05 0)
(-1.2759193e-06 -2.3834148e-05 0)
(-1.2500473e-06 -2.4680567e-05 0)
(-1.2231652e-06 -2.5508648e-05 0)
(-1.1955256e-06 -2.6317821e-05 0)
(-1.1673741e-06 -2.7107719e-05 0)
(-1.1389398e-06 -2.7878219e-05 0)
(-1.1104306e-06 -2.8629091e-05 0)
(-1.0816516e-06 -2.9357135e-05 0)
(-1.0530501e-06 -3.0021807e-05 0)
(-2.195586e-08 -1.4937723e-08 0)
(-7.0706535e-08 -1.4852908e-07 0)
(-1.1598974e-07 -3.7280024e-07 0)
(-1.5777353e-07 -6.8175788e-07 0)
(-1.9633253e-07 -1.0696088e-06 0)
(-2.318485e-07 -1.530377e-06 0)
(-2.6444593e-07 -2.0581732e-06 0)
(-2.9423262e-07 -2.647285e-06 0)
(-3.21312e-07 -3.2921997e-06 0)
(-3.4578623e-07 -3.987608e-06 0)
(-3.677569e-07 -4.7284042e-06 0)
(-3.8732514e-07 -5.5096855e-06 0)
(-4.0459163e-07 -6.326751e-06 0)
(-4.1965657e-07 -7.1751012e-06 0)
(-4.3261969e-07 -8.0504364e-06 0)
(-4.4358014e-07 -8.9486564e-06 0)
(-4.5263656e-07 -9.865859e-06 0)
(-4.5988695e-07 -1.0798339e-05 0)
(-4.654287e-07 -1.1742585e-05 0)
(-4.6935855e-07 -1.2695284e-05 0)
(-4.7177257e-07 -1.3653312e-05 0)
(-4.7276611e-07 -1.4613738e-05 0)
(-4.7243381e-07 -1.5573821e-05 0)
(-4.7086956e-07 -1.653101e-05 0)
(-4.6816649e-07 -1.748294e-05 0)
(-4.6441696e-07 -1.8427431e-05 0)
(-4.5971253e-07 -1.9362489e-05 0)
(-4.5414392e-07 -2.0286299e-05 0)
(-4.4780105e-07 -2.1197231e-05 0)
(-4.4077303e-07 -2.2093831e-05 0)
(-4.3314823e-07 -2.2974824e-05 0)
(-4.2501466e-07 -2.3839106e-05 0)
(-4.1646058e-07 -2.4685751e-05 0)
(-4.0757685e-07 -2.5514002e-05 0)
(-3.9846534e-07 -2.6323268e-05 0)
(-3.8927212e-07 -2.7113089e-05 0)
(-3.8031478e-07 -2.7882957e-05 0)
(-3.7249971e-07 -2.8631539e-05 0)
(-3.683447e-07 -2.9354371e-05 0)
(-3.6966462e-07 -3.0040766e-05 0)
(2.1954187e-08 -1.4937387e-08 0)
(7.0701005e-08 -1.4852848e-07 0)
(1.1598022e-07 -3.7279957e-07 0)
(1.5776002e-07 -6.8175722e-07 0)
(1.9631501e-07 -1.0696081e-06 0)
(2.3182698e-07 -1.5303764e-06 0)
(2.644204e-07 -2.0581725e-06 0)
(2.942031e-07 -2.6472843e-06 0)
(3.2127851e-07 -3.292199e-06 0)
(3.4574883e-07 -3.9876073e-06 0)
(3.6771565e-07 -4.7284036e-06 0)
(3.8728011e-07 -5.5096849e-06 0)
(4.0454292e-07 -6.3267504e-06 0)
(4.1960429e-07 -7.1751006e-06 0)
(4.3256394e-07 -8.0504358e-06 0)
(4.4352108e-07 -8.9486559e-06 0)
(4.5257432e-07 -9.8658584e-06 0)
(4.5982169e-07 -1.0798338e-05 0)
(4.6536059e-07 -1.1742585e-05 0)
(4.6928777e-07 -1.2695283e-05 0)
(4.7169928e-07 -1.3653311e-05 0)
(4.7269051e-07 -1.4613737e-05 0)
(4.7235609e-07 -1.5573821e-05 0)
(4.7078991e-07 -1.653101e-05 0)
(4.680851e-07 -1.748294e-05 0)
(4.6433399e-07 -1.8427431e-05 0)
(4.5962811e-07 -1.9362488e-05 0)
(4.5405819e-07 -2.0286299e-05 0)
(4.4771412e-07 -2.1197231e-05 0)
(4.4068498e-07 -2.2093831e-05 0)
(4.3305916e-07 -2.2974824e-05 0)
(4.2492451e-07 -2.3839106e-05 0)
(4.163692e-07 -2.4685751e-05 0)
(4.07484e-07 -2.5514001e-05 0)
(3.9837097e-07 -2.6323267e-05 0)
(3.8917644e-07 -2.7113089e-05 0)
(3.8021825e-07 -2.7882957e-05 0)
(3.7240269e-07 -2.863154e-05 0)
(3.6824725e-07 -2.9354371e-05 0)
(3.6956693e-07 -3.0040767e-05 0)
(7.7877312e-08 -4.2119516e-08 0)
(2.2162839e-07 -1.7701467e-07 0)
(3.5595677e-07 -3.9914931e-07 0)
(4.8061887e-07 -7.0595259e-07 0)
(5.9593537e-07 -1.0918888e-06 0)
(7.0221026e-07 -1.5508616e-06 0)
(7.9975171e-07 -2.076938e-06 0)
(8.8886691e-07 -2.6643943e-06 0)
(9.6986238e-07 -3.3077153e-06 0)
(1.0430437e-06 -4.0015909e-06 0)
(1.1087156e-06 -4.7409153e-06 0)
(1.1671813e-06 -5.5207853e-06 0)
(1.218743e-06 -6.3364998e-06 0)
(1.2637014e-06 -7.1835589e-06 0)
(1.3023559e-06 -8.0576628e-06 0)
(1.3350039e-06 -8.9547108e-06 0)
(1.3619414e-06 -9.8708003e-06 0)
(1.3834626e-06 -1.0802225e-05 0)
(1.3998597e-06 -1.1745476e-05 0)
(1.4114231e-06 -1.2697236e-05 0)
(1.4184409e-06 -1.3654383e-05 0)
(1.4211992e-06 -1.4613985e-05 0)
(1.4199822e-06 -1.5573301e-05 0)
(1.4150714e-06 -1.6529779e-05 0)
(1.4067464e-06 -1.7481054e-05 0)
(1.3952841e-06 -1.8424944e-05 0)
(1.3809593e-06 -1.9359456e-05 0)
(1.3640441e-06 -2.0282775e-05 0)
(1.3448082e-06 -2.1193269e-05 0)
(1.3235186e-06 -2.2089484e-05 0)
(1.3004397e-06 -2.2970145e-05 0)
(1.2758337e-06 -2.3834148e-05 0)
(1.2499604e-06 -2.4680566e-05 0)
(1.2230769e-06 -2.5508646e-05 0)
(1.195436e-06 -2.631782e-05 0)
(1.1672832e-06 -2.7107719e-05 0)
(1.1388476e-06 -2.7878219e-05 0)
(1.1103374e-06 -2.8629091e-05 0)
(1.0815579e-06 -2.9357135e-05 0)
(1.0529559e-06 -3.0021807e-05 0)
)
;

boundaryField
{
    left
    {
        nonOrthogonalCorrections true;
        type            fixedDisplacement;
        value           uniform (0 0 0);
    }
    right
    {
        type            solidTraction;
        nonOrthogonalCorrections true;
        useUndeformedArea false;
        traction        uniform (0 0 0);
        pressure        uniform 0;
        secondOrder     false;
        extrapolateValue false;
        setEffectiveTraction false;
        relaxationFactor 1;
        value           nonuniform List<vector> 4((-1.0235e-06 -3.0251585e-05 0) (-3.5958731e-07 -3.0386015e-05 0) (3.5948979e-07 -3.0386016e-05 0) (1.0234057e-06 -3.0251586e-05 0));
        gradient        uniform (0 0 0);
    }
    top
    {
        type            solidTraction;
        nonOrthogonalCorrections true;
        useUndeformedArea false;
        traction        uniform (0 0 0);
        pressure        uniform 0;
        secondOrder     false;
        extrapolateValue false;
        setEffectiveTraction false;
        relaxationFactor 1;
        value           nonuniform List<vector> 
40
(
(1.288284e-07 -6.5470114e-08 0)
(3.114027e-07 -2.0389966e-07 0)
(4.8737247e-07 -4.2474998e-07 0)
(6.5282475e-07 -7.2985392e-07 0)
(8.0613656e-07 -1.1139792e-06 0)
(9.4744214e-07 -1.5711784e-06 0)
(1.0771065e-06 -2.0955393e-06 0)
(1.1955361e-06 -2.6813412e-06 0)
(1.3031403e-06 -3.323069e-06 0)
(1.4003269e-06 -4.0154127e-06 0)
(1.4875023e-06 -4.7532659e-06 0)
(1.5650711e-06 -5.5317253e-06 0)
(1.6334364e-06 -6.3460896e-06 0)
(1.6929993e-06 -7.1918584e-06 0)
(1.7441588e-06 -8.0647318e-06 0)
(1.7873119e-06 -8.9606086e-06 0)
(1.8228533e-06 -9.875586e-06 0)
(1.8511753e-06 -1.0805958e-05 0)
(1.8726677e-06 -1.1748213e-05 0)
(1.8877175e-06 -1.2699036e-05 0)
(1.8967094e-06 -1.3655303e-05 0)
(1.9000248e-06 -1.4614082e-05 0)
(1.8980424e-06 -1.5572632e-05 0)
(1.891138e-06 -1.65284e-05 0)
(1.8796841e-06 -1.747902e-05 0)
(1.8640504e-06 -1.8422312e-05 0)
(1.844603e-06 -1.9356278e-05 0)
(1.8217051e-06 -2.0279107e-05 0)
(1.7957162e-06 -2.1189165e-05 0)
(1.7669922e-06 -2.2084997e-05 0)
(1.7358855e-06 -2.2965326e-05 0)
(1.7027455e-06 -2.3829051e-05 0)
(1.6679195e-06 -2.4675242e-05 0)
(1.6317537e-06 -2.5503148e-05 0)
(1.5945921e-06 -2.6312196e-05 0)
(1.5567503e-06 -2.7101998e-05 0)
(1.5183026e-06 -2.7872264e-05 0)
(1.4773271e-06 -2.8621986e-05 0)
(1.4235195e-06 -2.9342338e-05 0)
(1.2799379e-06 -2.9991814e-05 0)
)
;
        gradient        uniform (0 0 0);
    }
    bottom
    {
        type            solidTraction;
        nonOrthogonalCorrections true;
        useUndeformedArea false;
        traction        uniform (0 0 0);
        pressure        uniform 0;
        secondOrder     false;
        extrapolateValue false;
        setEffectiveTraction false;
        relaxationFactor 1;
        value           nonuniform List<vector> 
40
(
(-1.2883077e-07 -6.5471658e-08 0)
(-3.1140823e-07 -2.0390187e-07 0)
(-4.8738141e-07 -4.2475238e-07 0)
(-6.5283732e-07 -7.2985636e-07 0)
(-8.0615282e-07 -1.1139817e-06 0)
(-9.4746215e-07 -1.5711809e-06 0)
(-1.0771302e-06 -2.0955418e-06 0)
(-1.1955636e-06 -2.6813436e-06 0)
(-1.3031715e-06 -3.3230715e-06 0)
(-1.4003618e-06 -4.0154151e-06 0)
(-1.4875408e-06 -4.7532683e-06 0)
(-1.5651132e-06 -5.5317276e-06 0)
(-1.633482e-06 -6.3460918e-06 0)
(-1.6930482e-06 -7.1918606e-06 0)
(-1.744211e-06 -8.0647339e-06 0)
(-1.7873672e-06 -8.9606107e-06 0)
(-1.8229117e-06 -9.875588e-06 0)
(-1.8512365e-06 -1.080596e-05 0)
(-1.8727316e-06 -1.1748215e-05 0)
(-1.887784e-06 -1.2699038e-05 0)
(-1.8967782e-06 -1.3655305e-05 0)
(-1.9000958e-06 -1.4614084e-05 0)
(-1.8981155e-06 -1.5572634e-05 0)
(-1.8912129e-06 -1.6528401e-05 0)
(-1.8797607e-06 -1.7479021e-05 0)
(-1.8641285e-06 -1.8422312e-05 0)
(-1.8446825e-06 -1.9356279e-05 0)
(-1.8217859e-06 -2.0279108e-05 0)
(-1.7957981e-06 -2.1189165e-05 0)
(-1.7670753e-06 -2.2084997e-05 0)
(-1.7359699e-06 -2.2965326e-05 0)
(-1.7028313e-06 -2.3829051e-05 0)
(-1.6680067e-06 -2.4675243e-05 0)
(-1.631842e-06 -2.5503149e-05 0)
(-1.5946814e-06 -2.6312197e-05 0)
(-1.5568408e-06 -2.7101999e-05 0)
(-1.5183945e-06 -2.7872264e-05 0)
(-1.4774203e-06 -2.8621985e-05 0)
(-1.4236133e-06 -2.9342338e-05 0)
(-1.2800319e-06 -2.9991814e-05 0)
)
;
        gradient        uniform (0 0 0);
    }
    frontAndBack
    {
        type            empty;
    }
}


// ************************************************************************* //
