/*--------------------------------*- C++ -*----------------------------------*\
| =========                 |                                                 |
| \\      /  F ield         | OpenFOAM: The Open Source CFD Toolbox           |
|  \\    /   O peration     | Version:  2512                                  |
|   \\  /    A nd           | Website:  www.openfoam.com                      |
|    \\/     M anipulation  |                                                 |
\*---------------------------------------------------------------------------*/
FoamFile
{
    version     2.0;
    format      ascii;
    arch        "LSB;label=32;scalar=64";
    class       volSymmTensorField;
    location    "0.6";
    object      epsilon;
}
// * * * * * * * * * * * * * * * * * * * * * * * * * * * * * * * * * * * * * //

dimensions      [0 0 0 0 0 0 0];

internalField   nonuniform List<symmTensor> 
160
(
(-5.2477298e-06 -1.0430588e-07 5.1698788e-22 1.4812221e-06 6.4623485e-23 0)
(-5.6473522e-06 -2.7871778e-07 1.0339758e-21 1.6384633e-06 -7.7548182e-22 0)
(-5.3490274e-06 -2.765565e-07 5.1698788e-22 1.6082201e-06 -2.0679515e-21 0)
(-4.9930908e-06 -2.7677281e-07 2.0679515e-21 1.5012427e-06 8.2718061e-21 0)
(-4.6262938e-06 -2.7036361e-07 -3.1019273e-21 1.3907491e-06 -2.0679515e-21 0)
(-4.2684417e-06 -2.6285851e-07 -2.0679515e-21 1.2830631e-06 -2.0679515e-21 0)
(-3.9220078e-06 -2.550828e-07 -2.0679515e-21 1.1790472e-06 0 0)
(-3.587341e-06 -2.4726275e-07 0 1.0786259e-06 3.3087225e-20 0)
(-3.2644286e-06 -2.3943712e-07 -4.1359031e-21 9.8174676e-07 5.7902643e-20 0)
(-2.953234e-06 -2.3161374e-07 -2.0679515e-21 8.8838617e-07 8.2718061e-21 0)
(-2.6537216e-06 -2.2379442e-07 0 7.9853083e-07 -1.6543612e-20 0)
(-2.3658551e-06 -2.1597998e-07 -4.1359031e-21 7.1216927e-07 -1.6543612e-20 0)
(-2.0895954e-06 -2.0817091e-07 0 6.2928968e-07 1.6543612e-20 0)
(-1.8249008e-06 -2.0036768e-07 -2.0679515e-21 5.4987952e-07 1.6543612e-20 0)
(-1.5717266e-06 -1.9257068e-07 -4.1359031e-21 4.7392536e-07 0 0)
(-1.3300253e-06 -1.8478033e-07 6.2038546e-21 4.0141294e-07 0 0)
(-1.0997465e-06 -1.7699697e-07 -2.0679515e-21 3.3232717e-07 3.3087225e-20 0)
(-8.8083734e-07 -1.6922101e-07 -4.1359031e-21 2.6665218e-07 0 0)
(-6.7324242e-07 -1.6145274e-07 4.1359031e-21 2.0437136e-07 9.9261674e-20 0)
(-4.7690406e-07 -1.536925e-07 -4.1359031e-21 1.4546742e-07 0 0)
(-2.9176237e-07 -1.4594054e-07 -1.2407709e-20 8.9922399e-08 0 0)
(-1.1775553e-07 -1.3819717e-07 0 3.7717749e-08 1.323489e-19 0)
(4.5180173e-08 -1.3046263e-07 8.2718061e-21 -1.1165635e-08 6.6174449e-20 0)
(1.971101e-07 -1.2273721e-07 -1.2407709e-20 -5.6747376e-08 -9.9261674e-20 0)
(3.3810123e-07 -1.1502122e-07 -4.1359031e-21 -9.9047573e-08 -3.3087225e-20 0)
(4.6822197e-07 -1.073151e-07 -8.2718061e-21 -1.3808683e-07 0 0)
(5.8754244e-07 -9.9619613e-08 -6.2038546e-21 -1.7388623e-07 -9.9261674e-20 0)
(6.9613489e-07 -9.1935956e-08 2.0679515e-21 -2.0646754e-07 -1.9852335e-19 0)
(7.9407432e-07 -8.426564e-08 -6.2038546e-21 -2.3585283e-07 -6.6174449e-20 0)
(8.814363e-07 -7.6608072e-08 -1.0339758e-20 -2.6206343e-07 9.9261674e-20 0)
(9.5829016e-07 -6.8960572e-08 0 -2.8511758e-07 6.6174449e-20 0)
(1.0246888e-06 -6.1323682e-08 4.1359031e-21 -3.0502447e-07 0 0)
(1.0806527e-06 -5.3720251e-08 -8.2718061e-21 -3.2176427e-07 1.9852335e-19 0)
(1.126149e-06 -4.6251431e-08 0 -3.3521079e-07 -1.323489e-19 0)
(1.1612262e-06 -3.9345746e-08 2.0679515e-21 -3.4488231e-07 0 0)
(1.1877169e-06 -3.4832532e-08 -6.2038546e-21 -3.4982845e-07 1.9852335e-19 0)
(1.22597e-06 -4.234339e-08 2.0679515e-21 -3.5165944e-07 -6.6174449e-20 0)
(1.3791035e-06 -8.6751452e-08 -1.0339758e-20 -4.0922045e-07 6.6174449e-20 0)
(2.4560495e-06 -3.7539945e-07 0 -8.0588342e-07 -1.323489e-19 0)
(4.9218806e-06 1.4948512e-07 6.2038546e-21 -4.8543416e-06 -6.6174449e-20 0)
(-2.0290383e-06 -8.0067618e-07 -1.2924697e-22 2.885696e-07 -1.2924697e-22 0)
(-1.929629e-06 -6.8855076e-07 -1.5509636e-21 5.733004e-07 -1.8094576e-21 0)
(-1.7988634e-06 -6.3701303e-07 -1.0339758e-21 5.4777126e-07 2.0679515e-21 0)
(-1.6695304e-06 -6.0746319e-07 -1.2924697e-21 5.0555973e-07 4.1359031e-21 0)
(-1.5454985e-06 -5.8692831e-07 -4.1359031e-21 4.6634428e-07 -4.1359031e-21 0)
(-1.4259069e-06 -5.6838857e-07 -2.0679515e-21 4.2992094e-07 2.0679515e-20 0)
(-1.3103859e-06 -5.5026688e-07 -1.0339758e-21 3.9514125e-07 4.1359031e-21 0)
(-1.1988195e-06 -5.3223592e-07 -3.1019273e-21 3.6164535e-07 0 0)
(-1.0911738e-06 -5.1424295e-07 -3.1019273e-21 3.2934422e-07 1.6543612e-20 0)
(-9.8743338e-07 -4.9628253e-07 -5.6868667e-21 2.9821765e-07 -8.2718061e-21 0)
(-8.875861e-07 -4.7835654e-07 -3.1019273e-21 2.6825926e-07 0 0)
(-7.9161985e-07 -4.6046786e-07 -5.1698788e-21 2.3946494e-07 -2.4815418e-20 0)
(-6.9952166e-07 -4.4261945e-07 -6.2038546e-21 2.1183071e-07 -3.3087225e-20 0)
(-6.1127763e-07 -4.248143e-07 -2.0679515e-21 1.8535238e-07 -6.6174449e-20 0)
(-5.2687289e-07 -4.070553e-07 -4.1359031e-21 1.600255e-07 4.9630837e-20 0)
(-4.4629161e-07 -3.8934527e-07 -5.1698788e-21 1.3584532e-07 -4.9630837e-20 0)
(-3.6951708e-07 -3.7168688e-07 -1.0339758e-21 1.1280686e-07 1.6543612e-20 0)
(-2.9653169e-07 -3.540827e-07 -3.1019273e-21 9.0904843e-08 -6.6174449e-20 0)
(-2.2731705e-07 -3.3653512e-07 -4.1359031e-21 7.0133774e-08 -3.3087225e-20 0)
(-1.6185395e-07 -3.190464e-07 -7.2378304e-21 5.0487917e-08 0 0)
(-1.0012251e-07 -3.0161861e-07 -7.2378304e-21 3.1961322e-08 3.3087225e-20 0)
(-4.2102161e-08 -2.8425373e-07 -4.1359031e-21 1.4547839e-08 0 0)
(1.2228264e-08 -2.6695356e-07 -2.0679515e-21 -1.758863e-09 1.9852335e-19 0)
(6.2890489e-08 -2.4971985e-07 -9.3057819e-21 -1.6965291e-08 -1.6543612e-19 0)
(1.0990674e-07 -2.3255432e-07 -7.2378304e-21 -3.1078108e-08 -1.323489e-19 0)
(1.5329979e-07 -2.1545884e-07 -6.2038546e-21 -4.4104195e-08 0 0)
(1.9309294e-07 -1.9843568e-07 -7.2378304e-21 -5.6050649e-08 -1.323489e-19 0)
(2.2931029e-07 -1.8148756e-07 -3.1019273e-21 -6.6924904e-08 9.9261674e-20 0)
(2.6197628e-07 -1.6461584e-07 -5.1698788e-21 -7.6734161e-08 6.6174449e-20 0)
(2.911147e-07 -1.4781647e-07 -8.2718061e-21 -8.5484404e-08 -3.3087225e-20 0)
(3.1674647e-07 -1.3107735e-07 -3.1019273e-21 -9.3179027e-08 -1.323489e-19 0)
(3.3888678e-07 -1.1438084e-07 -9.3057819e-21 -9.9815264e-08 -2.646978e-19 0)
(3.5753716e-07 -9.7704828e-08 -2.0679515e-21 -1.0536657e-07 2.646978e-19 0)
(3.7265193e-07 -8.0969897e-08 -3.1019273e-21 -1.09683e-07 1.9852335e-19 0)
(3.83982e-07 -6.3683574e-08 -7.2378304e-21 -1.1202257e-07 0 0)
(3.9046764e-07 -4.3130314e-08 -4.1359031e-21 -1.0915751e-07 -1.323489e-19 0)
(3.8816403e-07 -5.5355257e-09 -3.1019273e-21 -9.0379129e-08 -1.9852335e-19 0)
(3.6739239e-07 1.0360671e-07 -2.0679515e-21 -3.4671431e-08 -6.6174449e-20 0)
(3.2182748e-07 4.9214656e-07 -1.0339758e-21 -8.422757e-08 -3.9704669e-19 0)
(5.7682288e-07 1.032722e-06 -8.2718061e-21 -1.5456724e-06 -6.6174449e-20 0)
(2.0289347e-06 -8.0066922e-07 1.130911e-22 -2.8855598e-07 6.4623485e-23 0)
(1.9295186e-06 -6.8854715e-07 0 -5.7326931e-07 -7.7548182e-22 0)
(1.7987509e-06 -6.370082e-07 5.1698788e-22 -5.4773542e-07 -1.0339758e-21 0)
(1.6694172e-06 -6.0745627e-07 -5.1698788e-22 -5.0552291e-07 9.3057819e-21 0)
(1.5453849e-06 -5.8691932e-07 1.0339758e-21 -4.6630737e-07 -6.2038546e-21 0)
(1.4257932e-06 -5.6837767e-07 0 -4.2988409e-07 8.2718061e-21 0)
(1.3102723e-06 -5.502542e-07 5.1698788e-22 -3.951045e-07 4.1359031e-21 0)
(1.1987066e-06 -5.3222152e-07 -5.1698788e-22 -3.6160877e-07 -4.1359031e-21 0)
(1.0910619e-06 -5.1422691e-07 -1.5509636e-21 -3.2930791e-07 2.4815418e-20 0)
(9.873229e-07 -4.9626489e-07 0 -2.9818172e-07 0 0)
(8.8747756e-07 -4.7833736e-07 0 -2.6822386e-07 0 0)
(7.915137e-07 -4.6044718e-07 -1.0339758e-21 -2.394302e-07 0 0)
(6.9941834e-07 -4.4259735e-07 0 -2.117968e-07 0 0)
(6.1117753e-07 -4.2479082e-07 5.1698788e-21 -1.8531945e-07 -3.3087225e-20 0)
(5.2677639e-07 -4.0703051e-07 -2.0679515e-21 -1.5999369e-07 1.1580529e-19 0)
(4.4619906e-07 -3.8931922e-07 2.0679515e-21 -1.3581477e-07 -1.6543612e-20 0)
(3.6942879e-07 -3.7165966e-07 0 -1.127777e-07 -1.6543612e-20 0)
(2.9644797e-07 -3.5405437e-07 1.0339758e-21 -9.0877181e-08 0 0)
(2.2723813e-07 -3.3650577e-07 0 -7.0107706e-08 -3.3087225e-20 0)
(1.6178007e-07 -3.190161e-07 1.0339758e-21 -5.0463521e-08 6.6174449e-20 0)
(1.0005384e-07 -3.0158745e-07 0 -3.1938657e-08 -9.9261674e-20 0)
(4.203883e-08 -2.8422179e-07 0 -1.452694e-08 0 0)
(-1.2286218e-08 -2.6692093e-07 -1.0339758e-21 1.7779957e-09 1.6543612e-19 0)
(-6.2943157e-08 -2.4968662e-07 0 1.6982711e-08 -1.323489e-19 0)
(-1.0995442e-07 -2.3252056e-07 2.0679515e-21 3.1093932e-08 6.6174449e-20 0)
(-1.53343e-07 -2.1542462e-07 0 4.4118536e-08 3.3087225e-20 0)
(-1.9313237e-07 -1.9840115e-07 -1.0339758e-21 5.6063324e-08 6.6174449e-20 0)
(-2.2934653e-07 -1.8145309e-07 -2.0679515e-21 6.6934849e-08 -1.323489e-19 0)
(-2.6200983e-07 -1.6458168e-07 2.0679515e-21 7.6739666e-08 -2.646978e-19 0)
(-2.9114635e-07 -1.4778259e-07 -6.2038546e-21 8.5484801e-08 -3.3087225e-20 0)
(-3.1677807e-07 -1.3104304e-07 -1.0339758e-21 9.3177221e-08 3.3087225e-19 0)
(-3.3892104e-07 -1.1434546e-07 -1.0339758e-21 9.9818047e-08 -6.6174449e-20 0)
(-3.5757616e-07 -9.7669134e-08 6.2038546e-21 1.0537933e-07 -1.323489e-19 0)
(-3.7269404e-07 -8.0935642e-08 2.0679515e-21 1.0970301e-07 -1.9852335e-19 0)
(-3.8402218e-07 -6.3651756e-08 -1.0339758e-21 1.1203929e-07 1.323489e-19 0)
(-3.9050041e-07 -4.3100363e-08 1.0339758e-21 1.0916152e-07 0 0)
(-3.8818674e-07 -5.505919e-09 -1.0339758e-21 9.0371328e-08 -1.323489e-19 0)
(-3.6740826e-07 1.0363611e-07 1.0339758e-21 3.4661186e-08 1.323489e-19 0)
(-3.2183881e-07 4.9217339e-07 0 8.4219546e-08 -6.6174449e-20 0)
(-5.7682382e-07 1.0327398e-06 -3.1019273e-21 1.5456518e-06 0 0)
(5.2476383e-06 -1.0430224e-07 1.4217167e-21 -1.4811975e-06 -5.1698788e-22 0)
(5.6472509e-06 -2.7871484e-07 5.6868667e-21 -1.638434e-06 1.0339758e-21 0)
(5.3489217e-06 -2.765521e-07 2.0679515e-21 -1.6081877e-06 3.6189152e-21 0)
(4.9929825e-06 -2.7676601e-07 0 -1.5012093e-06 2.0679515e-21 0)
(4.6261843e-06 -2.7035465e-07 0 -1.3907153e-06 -2.0679515e-21 0)
(4.2683317e-06 -2.628476e-07 5.1698788e-21 -1.2830291e-06 2.0679515e-21 0)
(3.9218978e-06 -2.5507011e-07 2.0679515e-21 -1.1790132e-06 4.1359031e-21 0)
(3.5872315e-06 -2.4724835e-07 -8.2718061e-21 -1.0785921e-06 8.2718061e-21 0)
(3.26432e-06 -2.3942108e-07 -4.1359031e-21 -9.8171316e-07 0 0)
(2.9531268e-06 -2.315961e-07 1.2407709e-20 -8.8835298e-07 8.2718061e-21 0)
(2.6536163e-06 -2.2377524e-07 0 -7.9849817e-07 -3.3087225e-20 0)
(2.365752e-06 -2.1595931e-07 1.0339758e-20 -7.1213727e-07 -8.2718061e-20 0)
(2.089495e-06 -2.081488e-07 -2.0679515e-21 -6.2925848e-07 3.3087225e-20 0)
(1.8248035e-06 -2.0034419e-07 2.0679515e-21 -5.4984925e-07 -1.6543612e-20 0)
(1.5716328e-06 -1.9254588e-07 -2.0679515e-21 -4.7389614e-07 4.9630837e-20 0)
(1.3299353e-06 -1.8475427e-07 8.2718061e-21 -4.0138488e-07 4.9630837e-20 0)
(1.0996606e-06 -1.7696975e-07 1.4475661e-20 -3.3230038e-07 -6.6174449e-20 0)
(8.8075583e-07 -1.6919268e-07 0 -2.6662675e-07 -1.6543612e-20 0)
(6.7316556e-07 -1.6142339e-07 4.1359031e-21 -2.0434738e-07 -3.3087225e-20 0)
(4.7683204e-07 -1.5366219e-07 0 -1.4544495e-07 1.6543612e-19 0)
(2.9169537e-07 -1.4590938e-07 1.6543612e-20 -8.9901494e-08 3.3087225e-20 0)
(1.1769366e-07 -1.3816523e-07 8.2718061e-21 -3.7698441e-08 -6.6174449e-20 0)
(-4.5236881e-08 -1.3043001e-07 2.0679515e-20 1.1183341e-08 3.3087225e-20 0)
(-1.9716175e-07 -1.2270397e-07 8.2718061e-21 5.6763515e-08 -1.6543612e-19 0)
(-3.3814803e-07 -1.1498745e-07 1.6543612e-20 9.9062214e-08 -6.6174449e-20 0)
(-4.6826428e-07 -1.0728082e-07 1.6543612e-20 1.3810004e-07 1.6543612e-19 0)
(-5.875807e-07 -9.9584984e-08 8.2718061e-21 1.7389798e-07 -1.6543612e-19 0)
(-6.9617001e-07 -9.1901494e-08 1.8611564e-20 2.0647752e-07 -3.3087225e-20 0)
(-7.9410792e-07 -8.4231688e-08 2.2747467e-20 2.358607e-07 -1.323489e-19 0)
(-8.8147051e-07 -7.6574602e-08 1.6543612e-20 2.620696e-07 0 0)
(-9.5832643e-07 -6.8926442e-08 1.0339758e-20 2.8512386e-07 1.323489e-19 0)
(-1.0247263e-06 -6.128778e-08 1.2407709e-20 3.0503353e-07 -1.323489e-19 0)
(-1.0806902e-06 -5.3683678e-08 2.0679515e-20 3.2177731e-07 0 0)
(-1.1261853e-06 -4.6216818e-08 2.0679515e-21 3.352257e-07 0 0)
(-1.161262e-06 -3.9314554e-08 4.1359031e-21 3.4489472e-07 -6.6174449e-20 0)
(-1.1877528e-06 -3.480372e-08 1.4475661e-20 3.4983519e-07 1.323489e-19 0)
(-1.2260024e-06 -4.2313987e-08 8.2718061e-21 3.5166135e-07 6.6174449e-20 0)
(-1.3791263e-06 -8.6721021e-08 2.0679515e-21 4.0922092e-07 -1.9852335e-19 0)
(-2.4560616e-06 -3.7537166e-07 -2.0679515e-21 8.0588403e-07 1.9852335e-19 0)
(-4.921886e-06 1.4950103e-07 1.4475661e-20 4.8543475e-06 2.646978e-19 0)
)
;

boundaryField
{
    left
    {
        type            calculated;
        value           nonuniform List<symmTensor> 4((-6.4372918e-06 -3.9609011e-07 0 1.3449917e-06 0 0) (-1.8178886e-06 -5.9813411e-07 0 0 0 0) (1.8177921e-06 -5.981244e-07 0 0 0 0) (6.4371876e-06 -3.9607459e-07 0 -1.3449694e-06 0 0));
    }
    right
    {
        type            calculated;
        value           nonuniform List<symmTensor> 4((2.5680423e-06 9.6286271e-09 0 -8.5630152e-06 0 0) (8.7488312e-07 1.44038e-08 0 -2.9172449e-06 0 0) (-8.7487295e-07 1.4403692e-08 0 2.917211e-06 0 0) (-2.5680456e-06 9.6285076e-09 0 8.5630263e-06 0 0));
    }
    top
    {
        type            calculated;
        value           nonuniform List<symmTensor> 
40
(
(6.4373554e-06 -6.8715602e-10 0 -1.9309409e-06 0 0)
(7.4354081e-06 -1.3169101e-09 0 -2.2302867e-06 0 0)
(7.100284e-06 -2.1016742e-09 0 -2.1297402e-06 0 0)
(6.6470728e-06 -2.9256676e-09 0 -1.9937768e-06 0 0)
(6.1615409e-06 -3.7482177e-09 0 -1.8481206e-06 0 0)
(5.6850193e-06 -4.5617016e-09 0 -1.7051686e-06 0 0)
(5.2231933e-06 -5.3631825e-09 0 -1.5666263e-06 0 0)
(4.7769926e-06 -6.1505108e-09 0 -1.4327724e-06 0 0)
(4.3464594e-06 -6.9216281e-09 0 -1.3036196e-06 0 0)
(3.9315518e-06 -7.6745135e-09 0 -1.1791554e-06 0 0)
(3.5322224e-06 -8.4071899e-09 0 -1.0593654e-06 0 0)
(3.1484228e-06 -9.1177324e-09 0 -9.4423513e-07 0 0)
(2.7801009e-06 -9.8042744e-09 0 -8.3374899e-07 0 0)
(2.4272012e-06 -1.0465012e-08 0 -7.2789021e-07 0 0)
(2.0896639e-06 -1.109821e-08 0 -6.2664086e-07 0 0)
(1.7674255e-06 -1.1702204e-08 0 -5.2998187e-07 0 0)
(1.4604189e-06 -1.2275409e-08 0 -4.3789305e-07 0 0)
(1.1685733e-06 -1.281632e-08 0 -3.5035316e-07 0 0)
(8.918149e-07 -1.3323516e-08 0 -2.6733999e-07 0 0)
(6.3006654e-07 -1.3795667e-08 0 -1.8883038e-07 0 0)
(3.8324832e-07 -1.4231534e-08 0 -1.148003e-07 0 0)
(1.5127763e-07 -1.4629973e-08 0 -4.522494e-08 0 0)
(-6.593062e-08 -1.498994e-08 0 1.9921274e-08 0 0)
(-2.6846378e-07 -1.5310491e-08 0 8.0664588e-08 0 0)
(-4.5641129e-07 -1.5590785e-08 0 1.3703188e-07 0 0)
(-6.2986439e-07 -1.5830087e-08 0 1.8905056e-07 0 0)
(-7.8891657e-07 -1.6027766e-08 0 2.3674873e-07 0 0)
(-9.3366524e-07 -1.6183302e-08 0 2.8015566e-07 0 0)
(-1.0642129e-06 -1.6296294e-08 0 3.1930215e-07 0 0)
(-1.1806638e-06 -1.6366483e-08 0 3.5421951e-07 0 0)
(-1.283112e-06 -1.6393748e-08 0 3.84936e-07 0 0)
(-1.3716273e-06 -1.637807e-08 0 4.1147266e-07 0 0)
(-1.4462476e-06 -1.6319485e-08 0 4.3384083e-07 0 0)
(-1.5070041e-06 -1.6218132e-08 0 4.5204994e-07 0 0)
(-1.5545e-06 -1.6074395e-08 0 4.6628095e-07 0 0)
(-1.5945205e-06 -1.5888086e-08 0 4.7826891e-07 0 0)
(-1.675641e-06 -1.5649871e-08 0 5.0258163e-07 0 0)
(-2.0234427e-06 -1.5267441e-08 0 6.0687056e-07 0 0)
(-4.2684505e-06 -1.4312643e-08 0 1.2801279e-06 0 0)
(-8.6901236e-06 -9.5348017e-09 0 2.6061635e-06 0 0)
)
;
    }
    bottom
    {
        type            calculated;
        value           nonuniform List<symmTensor> 
40
(
(-6.4374351e-06 -6.8708133e-10 0 1.9309649e-06 0 0)
(-7.4355031e-06 -1.3168811e-09 0 2.2303152e-06 0 0)
(-7.1003856e-06 -2.1016665e-09 0 2.1297707e-06 0 0)
(-6.6471784e-06 -2.9256657e-09 0 1.9938086e-06 0 0)
(-6.1616483e-06 -3.7482173e-09 0 1.8481528e-06 0 0)
(-5.6851274e-06 -4.5617017e-09 0 1.7052011e-06 0 0)
(-5.2233015e-06 -5.363183e-09 0 1.5666588e-06 0 0)
(-4.7771003e-06 -6.1505117e-09 0 1.4328048e-06 0 0)
(-4.3465663e-06 -6.9216297e-09 0 1.3036517e-06 0 0)
(-3.9316573e-06 -7.6745156e-09 0 1.1791871e-06 0 0)
(-3.5323261e-06 -8.4071927e-09 0 1.0593966e-06 0 0)
(-3.1485242e-06 -9.1177359e-09 0 9.4426563e-07 0 0)
(-2.7801998e-06 -9.8042785e-09 0 8.3377869e-07 0 0)
(-2.427297e-06 -1.0465017e-08 0 7.27919e-07 0 0)
(-2.0897563e-06 -1.1098215e-08 0 6.2666863e-07 0 0)
(-1.7675142e-06 -1.170221e-08 0 5.3000852e-07 0 0)
(-1.4605035e-06 -1.2275416e-08 0 4.3791849e-07 0 0)
(-1.1686537e-06 -1.2816327e-08 0 3.5037731e-07 0 0)
(-8.9189072e-07 -1.3323524e-08 0 2.6736277e-07 0 0)
(-6.3013761e-07 -1.3795675e-08 0 1.8885173e-07 0 0)
(-3.8331447e-07 -1.4231542e-08 0 1.1482018e-07 0 0)
(-1.5133876e-07 -1.4629981e-08 0 4.524331e-08 0 0)
(6.5874524e-08 -1.4989948e-08 0 -1.9904417e-08 0 0)
(2.6841262e-07 -1.5310498e-08 0 -8.0649215e-08 0 0)
(4.5636489e-07 -1.5590792e-08 0 -1.3701794e-07 0 0)
(6.2982255e-07 -1.5830094e-08 0 -1.8903799e-07 0 0)
(7.8887907e-07 -1.6027774e-08 0 -2.3673746e-07 0 0)
(9.3363094e-07 -1.6183315e-08 0 -2.8014535e-07 0 0)
(1.0641793e-06 -1.6296312e-08 0 -3.1929205e-07 0 0)
(1.1806277e-06 -1.6366497e-08 0 -3.5420866e-07 0 0)
(1.2830722e-06 -1.6393744e-08 0 -3.8492405e-07 0 0)
(1.3715873e-06 -1.637804e-08 0 -4.1146064e-07 0 0)
(1.4462115e-06 -1.631945e-08 0 -4.3382999e-07 0 0)
(1.5069725e-06 -1.6218125e-08 0 -4.5204044e-07 0 0)
(1.554468e-06 -1.607443e-08 0 -4.6627131e-07 0 0)
(1.5944827e-06 -1.5888137e-08 0 -4.7825757e-07 0 0)
(1.6756023e-06 -1.5649897e-08 0 -5.0257e-07 0 0)
(2.0234156e-06 -1.5267433e-08 0 -6.0686242e-07 0 0)
(4.2684391e-06 -1.4312639e-08 0 -1.2801245e-06 0 0)
(8.6901162e-06 -9.5348392e-09 0 -2.6061613e-06 0 0)
)
;
    }
    frontAndBack
    {
        type            empty;
    }
}


// ************************************************************************* //
