/*--------------------------------*- C++ -*----------------------------------*\
| =========                 |                                                 |
| \\      /  F ield         | OpenFOAM: The Open Source CFD Toolbox           |
|  \\    /   O peration     | Version:  2512                                  |
|   \\  /    A nd           | Website:  www.openfoam.com                      |
|    \\/     M anipulation  |                                                 |
\*---------------------------------------------------------------------------*/
FoamFile
{
    version     2.0;
    format      ascii;
    arch        "LSB;label=32;scalar=64";
    class       volScalarField;
    location    "0.6";
    object      epsilonEq;
}
// * * * * * * * * * * * * * * * * * * * * * * * * * * * * * * * * * * * * * //

dimensions      [0 0 0 0 0 0 0];

internalField   nonuniform List<scalar> 
160
(
4.0845715e-06
4.4253401e-06
4.2179684e-06
3.9389979e-06
3.65088e-06
3.369788e-06
3.0977936e-06
2.8351183e-06
2.5817439e-06
2.3376501e-06
2.1028257e-06
1.8772659e-06
1.6609743e-06
1.4539674e-06
1.256284e-06
1.0680034e-06
8.8928014e-07
7.2042032e-07
5.6206581e-07
4.1571165e-07
2.8545731e-07
1.8502353e-07
1.5453425e-07
2.0917978e-07
2.9612356e-07
3.8730101e-07
4.7487087e-07
5.5630469e-07
6.3061428e-07
6.9736195e-07
7.5633741e-07
8.0742773e-07
8.5054638e-07
8.8556138e-07
9.1226718e-07
9.3147155e-07
9.5758255e-07
1.0865486e-06
2.0092775e-06
5.6469881e-06
1.7267869e-06
1.7101923e-06
1.5970369e-06
1.4898179e-06
1.3920779e-06
1.2996181e-06
1.210953e-06
1.1257251e-06
1.0438896e-06
9.6547456e-07
8.9053049e-07
8.1912218e-07
7.5133035e-07
6.8725515e-07
6.2702059e-07
5.7077958e-07
5.1871882e-07
4.7106243e-07
4.2807167e-07
3.9003658e-07
3.5725338e-07
3.2998132e-07
3.0837692e-07
2.9241523e-07
2.8182388e-07
2.7606336e-07
2.7437177e-07
2.758598e-07
2.7961669e-07
2.8479251e-07
2.9064572e-07
2.9655979e-07
3.020273e-07
3.0655199e-07
3.0924472e-07
3.0737851e-07
2.9364646e-07
2.8372158e-07
6.1982029e-07
1.7401087e-06
1.7267201e-06
1.7101144e-06
1.596955e-06
1.4897345e-06
1.3919937e-06
1.2995336e-06
1.2108683e-06
1.1256406e-06
1.0438056e-06
9.6539158e-07
8.9044883e-07
8.1904222e-07
7.5125249e-07
6.8717977e-07
6.2694807e-07
5.707103e-07
5.1865316e-07
4.7100078e-07
4.2801443e-07
3.8998413e-07
3.5720608e-07
3.2993943e-07
3.0834058e-07
2.9238439e-07
2.8179831e-07
2.7604274e-07
2.7435573e-07
2.7584782e-07
2.7960771e-07
2.847857e-07
2.9064196e-07
2.9656268e-07
3.0204078e-07
3.0657462e-07
3.0926871e-07
3.0739576e-07
2.9365726e-07
2.8374195e-07
6.1985023e-07
1.7401135e-06
4.0845008e-06
4.425261e-06
4.2178849e-06
3.938912e-06
3.6507929e-06
3.3697003e-06
3.0977056e-06
2.8350305e-06
2.5816566e-06
2.3375636e-06
2.1027403e-06
1.877182e-06
1.6608921e-06
1.4538871e-06
1.2562059e-06
1.0679276e-06
8.8920676e-07
7.2034936e-07
5.6199718e-07
4.1564517e-07
2.8539327e-07
1.8496694e-07
1.5450754e-07
2.0918385e-07
2.961392e-07
3.8732008e-07
4.7489049e-07
5.5632395e-07
6.3063335e-07
6.9738189e-07
7.5635955e-07
8.0745251e-07
8.5057348e-07
8.855893e-07
9.1229426e-07
9.3149651e-07
9.576027e-07
1.0865603e-06
2.0092785e-06
5.6469952e-06
)
;

boundaryField
{
    left
    {
        type            calculated;
        value           nonuniform List<scalar> 4(4.8247738e-06 1.3949133e-06 1.3948519e-06 4.8246945e-06);
    }
    right
    {
        type            calculated;
        value           nonuniform List<scalar> 4(6.7300498e-06 2.2928496e-06 2.292823e-06 6.7300585e-06);
    }
    top
    {
        type            calculated;
        value           nonuniform List<scalar> 
40
(
5.0595666e-06
5.8439929e-06
5.5805854e-06
5.2243672e-06
4.8427471e-06
4.4682099e-06
4.105224e-06
3.7545203e-06
3.4161321e-06
3.0900265e-06
2.7761665e-06
2.4745142e-06
2.1850292e-06
1.9076681e-06
1.6423848e-06
1.3891305e-06
1.1478546e-06
9.1850533e-07
7.0103251e-07
4.9539543e-07
3.0159798e-07
1.2002564e-07
5.4696011e-08
2.1180529e-07
3.5923444e-07
4.954447e-07
6.2038876e-07
7.341133e-07
8.3668797e-07
9.2818968e-07
1.0086899e-06
1.078242e-06
1.1368749e-06
1.1846126e-06
1.2219287e-06
1.2533694e-06
1.3171083e-06
1.5904268e-06
3.3548091e-06
6.8299501e-06
)
;
    }
    bottom
    {
        type            calculated;
        value           nonuniform List<scalar> 
40
(
5.0596293e-06
5.8440676e-06
5.5806652e-06
5.2244502e-06
4.8428315e-06
4.4682949e-06
4.105309e-06
3.754605e-06
3.4162162e-06
3.0901095e-06
2.7762481e-06
2.474594e-06
2.1851069e-06
1.9077434e-06
1.6424574e-06
1.3892002e-06
1.1479212e-06
9.1856851e-07
7.0109211e-07
4.9545128e-07
3.0164991e-07
1.2007323e-07
5.4654179e-08
2.1176521e-07
3.5919801e-07
4.9541183e-07
6.2035929e-07
7.3408634e-07
8.3666156e-07
9.2816132e-07
1.0086586e-06
1.0782105e-06
1.1368466e-06
1.1845878e-06
1.2219035e-06
1.2533397e-06
1.3170779e-06
1.5904055e-06
3.3548002e-06
6.8299444e-06
)
;
    }
    frontAndBack
    {
        type            empty;
    }
}


// ************************************************************************* //
