/*--------------------------------*- C++ -*----------------------------------*\
| =========                 |                                                 |
| \\      /  F ield         | OpenFOAM: The Open Source CFD Toolbox           |
|  \\    /   O peration     | Version:  2512                                  |
|   \\  /    A nd           | Website:  www.openfoam.com                      |
|    \\/     M anipulation  |                                                 |
\*---------------------------------------------------------------------------*/
FoamFile
{
    version     2.0;
    format      ascii;
    arch        "LSB;label=32;scalar=64";
    class       pointVectorField;
    location    "0.6";
    object      pointD;
}
// * * * * * * * * * * * * * * * * * * * * * * * * * * * * * * * * * * * * * //

dimensions      [0 1 0 0 0 0 0];

internalField   nonuniform List<vector> 
410
(
(-6.6420542e-08 -3.3624793e-08 0)
(-2.2735642e-07 -1.3840902e-07 0)
(-4.13244e-07 -3.2347975e-07 0)
(-5.9075364e-07 -5.9512353e-07 0)
(-7.569331e-07 -9.5180253e-07 0)
(-9.109743e-07 -1.387921e-06 0)
(-1.0531025e-06 -1.8975115e-06 0)
(-1.183685e-06 -2.4747081e-06 0)
(-1.3031125e-06 -3.1138346e-06 0)
(-1.4117767e-06 -3.8094112e-06 0)
(-1.5100681e-06 -4.5561546e-06 0)
(-1.5983763e-06 -5.3489765e-06 0)
(-1.6770894e-06 -6.182983e-06 0)
(-1.7465944e-06 -7.0534745e-06 0)
(-1.8072768e-06 -7.955944e-06 0)
(-1.8595207e-06 -8.8860775e-06 0)
(-1.9037086e-06 -9.8397523e-06 0)
(-1.9402212e-06 -1.0813037e-05 0)
(-1.9694375e-06 -1.180219e-05 0)
(-1.9917348e-06 -1.2803658e-05 0)
(-2.0074882e-06 -1.3814077e-05 0)
(-2.0170711e-06 -1.483027e-05 0)
(-2.0208545e-06 -1.5849246e-05 0)
(-2.0192077e-06 -1.6868199e-05 0)
(-2.0124974e-06 -1.7884507e-05 0)
(-2.0010882e-06 -1.8895731e-05 0)
(-1.9853427e-06 -1.9899614e-05 0)
(-1.9656207e-06 -2.0894078e-05 0)
(-1.9422799e-06 -2.1877228e-05 0)
(-1.9156754e-06 -2.2847344e-05 0)
(-1.8861597e-06 -2.3802885e-05 0)
(-1.8540829e-06 -2.4742483e-05 0)
(-1.8197933e-06 -2.5664946e-05 0)
(-1.783638e-06 -2.6569258e-05 0)
(-1.7459637e-06 -2.7454579e-05 0)
(-1.707102e-06 -2.8320255e-05 0)
(-1.6672399e-06 -2.9165772e-05 0)
(-1.6253498e-06 -2.9990265e-05 0)
(-1.5747644e-06 -3.0788226e-05 0)
(-1.4680535e-06 -3.1532129e-05 0)
(-1.2508006e-06 -3.202605e-05 0)
(0 0 0)
(-1.0145061e-07 -9.7972707e-08 0)
(-1.9793065e-07 -2.819929e-07 0)
(-2.8787238e-07 -5.5619938e-07 0)
(-3.7134746e-07 -9.1566455e-07 0)
(-4.4862094e-07 -1.3545215e-06 0)
(-5.1991484e-07 -1.8667578e-06 0)
(-5.8543269e-07 -2.4465095e-06 0)
(-6.4537223e-07 -3.0881019e-06 0)
(-6.9992951e-07 -3.7860565e-06 0)
(-7.4929977e-07 -4.53509e-06 0)
(-7.936777e-07 -5.3301145e-06 0)
(-8.3325735e-07 -6.1662365e-06 0)
(-8.6823212e-07 -7.0387565e-06 0)
(-8.9879474e-07 -7.943168e-06 0)
(-9.2513716e-07 -8.8751572e-06 0)
(-9.4745057e-07 -9.830602e-06 0)
(-9.659253e-07 -1.0805571e-05 0)
(-9.8075083e-07 -1.1796323e-05 0)
(-9.9211568e-07 -1.2799306e-05 0)
(-1.0002074e-06 -1.3811156e-05 0)
(-1.0052127e-06 -1.4828696e-05 0)
(-1.007317e-06 -1.5848935e-05 0)
(-1.0067049e-06 -1.6869069e-05 0)
(-1.0035597e-06 -1.7886475e-05 0)
(-9.9806373e-07 -1.8898716e-05 0)
(-9.903982e-07 -1.9903533e-05 0)
(-9.8074305e-07 -2.0898853e-05 0)
(-9.6927708e-07 -2.1882777e-05 0)
(-9.5617785e-07 -2.2853588e-05 0)
(-9.4162173e-07 -2.3809744e-05 0)
(-9.2578402e-07 -2.4749879e-05 0)
(-9.0883926e-07 -2.5672801e-05 0)
(-8.9096192e-07 -2.6577491e-05 0)
(-8.7232878e-07 -2.7463106e-05 0)
(-8.5312917e-07 -2.8328972e-05 0)
(-8.336054e-07 -2.9174546e-05 0)
(-8.1419695e-07 -2.9999074e-05 0)
(-7.9582717e-07 -3.0799879e-05 0)
(-7.7973567e-07 -3.1560771e-05 0)
(-7.5089455e-07 -3.2240125e-05 0)
(0 0 0)
(-1.2986175e-12 -8.3544227e-08 0)
(-2.713105e-12 -2.6775636e-07 0)
(-4.1524433e-12 -5.4304735e-07 0)
(-5.5961913e-12 -9.0353859e-07 0)
(-7.0412064e-12 -1.3433302e-06 0)
(-8.4859496e-12 -1.856453e-06 0)
(-9.9273842e-12 -2.4370572e-06 0)
(-1.1360828e-11 -3.0794719e-06 0)
(-1.2780985e-11 -3.7782193e-06 0)
(-1.4181989e-11 -4.5280163e-06 0)
(-1.5558181e-11 -5.3237752e-06 0)
(-1.6903744e-11 -6.1606026e-06 0)
(-1.8213406e-11 -7.0337989e-06 0)
(-1.9481881e-11 -7.938858e-06 0)
(-2.0704586e-11 -8.871466e-06 0)
(-2.1876943e-11 -9.8275009e-06 0)
(-2.2995134e-11 -1.0803032e-05 0)
(-2.4055318e-11 -1.1794317e-05 0)
(-2.5054449e-11 -1.2797805e-05 0)
(-2.5989486e-11 -1.3810132e-05 0)
(-2.6858307e-11 -1.4828121e-05 0)
(-2.7659083e-11 -1.5848782e-05 0)
(-2.839144e-11 -1.686931e-05 0)
(-2.9056472e-11 -1.7887082e-05 0)
(-2.9658201e-11 -1.8899662e-05 0)
(-3.0203606e-11 -1.9904792e-05 0)
(-3.0701634e-11 -2.0900397e-05 0)
(-3.1158404e-11 -2.1884579e-05 0)
(-3.1576923e-11 -2.2855622e-05 0)
(-3.1963934e-11 -2.3811984e-05 0)
(-3.2344676e-11 -2.4752298e-05 0)
(-3.2762634e-11 -2.5675373e-05 0)
(-3.3251997e-11 -2.6580188e-05 0)
(-3.3790979e-11 -2.7465894e-05 0)
(-3.4300677e-11 -2.8331786e-05 0)
(-3.4693309e-11 -2.917719e-05 0)
(-3.4937128e-11 -3.0000949e-05 0)
(-3.5101653e-11 -3.0799738e-05 0)
(-3.5223012e-11 -3.1565123e-05 0)
(-3.5203215e-11 -3.2313056e-05 0)
(0 0 0)
(1.0144803e-07 -9.7972026e-08 0)
(1.9792538e-07 -2.8199203e-07 0)
(2.8786436e-07 -5.5619846e-07 0)
(3.7133666e-07 -9.1566363e-07 0)
(4.4860736e-07 -1.3545206e-06 0)
(5.1989846e-07 -1.8667569e-06 0)
(5.8541352e-07 -2.4465085e-06 0)
(6.4535028e-07 -3.088101e-06 0)
(6.9990479e-07 -3.7860556e-06 0)
(7.4927234e-07 -4.5350891e-06 0)
(7.9364759e-07 -5.3301136e-06 0)
(8.3322462e-07 -6.1662357e-06 0)
(8.6819685e-07 -7.0387556e-06 0)
(8.9875699e-07 -7.9431672e-06 0)
(9.2509704e-07 -8.8751564e-06 0)
(9.4740816e-07 -9.8306012e-06 0)
(9.6588072e-07 -1.080557e-05 0)
(9.8070418e-07 -1.1796322e-05 0)
(9.9206708e-07 -1.2799305e-05 0)
(1.000157e-06 -1.3811155e-05 0)
(1.0051606e-06 -1.4828695e-05 0)
(1.0072633e-06 -1.5848935e-05 0)
(1.0066497e-06 -1.6869068e-05 0)
(1.0035033e-06 -1.7886475e-05 0)
(9.9800613e-07 -1.8898715e-05 0)
(9.9033953e-07 -1.9903533e-05 0)
(9.8068341e-07 -2.0898853e-05 0)
(9.6921654e-07 -2.1882777e-05 0)
(9.5611647e-07 -2.2853588e-05 0)
(9.4155954e-07 -2.3809744e-05 0)
(9.2572101e-07 -2.4749879e-05 0)
(9.0877538e-07 -2.5672801e-05 0)
(8.9089706e-07 -2.6577491e-05 0)
(8.722629e-07 -2.7463106e-05 0)
(8.530623e-07 -2.8328972e-05 0)
(8.3353767e-07 -2.9174546e-05 0)
(8.1412858e-07 -2.9999074e-05 0)
(7.9575833e-07 -3.0799879e-05 0)
(7.7966651e-07 -3.1560771e-05 0)
(7.508253e-07 -3.2240126e-05 0)
(6.641969e-08 -3.3624236e-08 0)
(2.2735357e-07 -1.3840767e-07 0)
(4.1323878e-07 -3.2347809e-07 0)
(5.9074588e-07 -5.9512178e-07 0)
(7.569227e-07 -9.5180077e-07 0)
(9.1096122e-07 -1.3879192e-06 0)
(1.0530867e-06 -1.8975097e-06 0)
(1.1836665e-06 -2.4747064e-06 0)
(1.3030913e-06 -3.1138328e-06 0)
(1.4117528e-06 -3.8094095e-06 0)
(1.5100416e-06 -4.5561529e-06 0)
(1.5983472e-06 -5.3489748e-06 0)
(1.6770578e-06 -6.1829814e-06 0)
(1.7465603e-06 -7.0534729e-06 0)
(1.8072403e-06 -7.9559425e-06 0)
(1.8594819e-06 -8.886076e-06 0)
(1.9036675e-06 -9.8397509e-06 0)
(1.940178e-06 -1.0813036e-05 0)
(1.9693924e-06 -1.1802188e-05 0)
(1.9916877e-06 -1.2803657e-05 0)
(2.0074394e-06 -1.3814076e-05 0)
(2.0170206e-06 -1.4830269e-05 0)
(2.0208025e-06 -1.5849245e-05 0)
(2.0191543e-06 -1.6868198e-05 0)
(2.0124427e-06 -1.7884506e-05 0)
(2.0010324e-06 -1.889573e-05 0)
(1.9852858e-06 -1.9899613e-05 0)
(1.9655629e-06 -2.0894078e-05 0)
(1.9422212e-06 -2.1877228e-05 0)
(1.9156159e-06 -2.2847344e-05 0)
(1.8860993e-06 -2.3802885e-05 0)
(1.8540215e-06 -2.4742482e-05 0)
(1.8197308e-06 -2.5664946e-05 0)
(1.7835746e-06 -2.6569257e-05 0)
(1.7458995e-06 -2.7454578e-05 0)
(1.707037e-06 -2.8320255e-05 0)
(1.667174e-06 -2.9165772e-05 0)
(1.625283e-06 -2.9990266e-05 0)
(1.5746969e-06 -3.0788226e-05 0)
(1.4679857e-06 -3.1532129e-05 0)
(1.2507326e-06 -3.202605e-05 0)
(-6.6420542e-08 -3.3624793e-08 0)
(-2.2735642e-07 -1.3840902e-07 0)
(-4.13244e-07 -3.2347975e-07 0)
(-5.9075364e-07 -5.9512353e-07 0)
(-7.569331e-07 -9.5180253e-07 0)
(-9.109743e-07 -1.387921e-06 0)
(-1.0531025e-06 -1.8975115e-06 0)
(-1.183685e-06 -2.4747081e-06 0)
(-1.3031125e-06 -3.1138346e-06 0)
(-1.4117767e-06 -3.8094112e-06 0)
(-1.5100681e-06 -4.5561546e-06 0)
(-1.5983763e-06 -5.3489765e-06 0)
(-1.6770894e-06 -6.182983e-06 0)
(-1.7465944e-06 -7.0534745e-06 0)
(-1.8072768e-06 -7.955944e-06 0)
(-1.8595207e-06 -8.8860775e-06 0)
(-1.9037086e-06 -9.8397523e-06 0)
(-1.9402212e-06 -1.0813037e-05 0)
(-1.9694375e-06 -1.180219e-05 0)
(-1.9917348e-06 -1.2803658e-05 0)
(-2.0074882e-06 -1.3814077e-05 0)
(-2.0170711e-06 -1.483027e-05 0)
(-2.0208545e-06 -1.5849246e-05 0)
(-2.0192077e-06 -1.6868199e-05 0)
(-2.0124974e-06 -1.7884507e-05 0)
(-2.0010882e-06 -1.8895731e-05 0)
(-1.9853427e-06 -1.9899614e-05 0)
(-1.9656207e-06 -2.0894078e-05 0)
(-1.9422799e-06 -2.1877228e-05 0)
(-1.9156754e-06 -2.2847344e-05 0)
(-1.8861597e-06 -2.3802885e-05 0)
(-1.8540829e-06 -2.4742483e-05 0)
(-1.8197933e-06 -2.5664946e-05 0)
(-1.783638e-06 -2.6569258e-05 0)
(-1.7459637e-06 -2.7454579e-05 0)
(-1.707102e-06 -2.8320255e-05 0)
(-1.6672399e-06 -2.9165772e-05 0)
(-1.6253498e-06 -2.9990265e-05 0)
(-1.5747644e-06 -3.0788226e-05 0)
(-1.4680535e-06 -3.1532129e-05 0)
(-1.2508006e-06 -3.202605e-05 0)
(0 0 0)
(-1.0145061e-07 -9.7972707e-08 0)
(-1.9793065e-07 -2.819929e-07 0)
(-2.8787238e-07 -5.5619938e-07 0)
(-3.7134746e-07 -9.1566455e-07 0)
(-4.4862094e-07 -1.3545215e-06 0)
(-5.1991484e-07 -1.8667578e-06 0)
(-5.8543269e-07 -2.4465095e-06 0)
(-6.4537223e-07 -3.0881019e-06 0)
(-6.9992951e-07 -3.7860565e-06 0)
(-7.4929977e-07 -4.53509e-06 0)
(-7.936777e-07 -5.3301145e-06 0)
(-8.3325735e-07 -6.1662365e-06 0)
(-8.6823212e-07 -7.0387565e-06 0)
(-8.9879474e-07 -7.943168e-06 0)
(-9.2513716e-07 -8.8751572e-06 0)
(-9.4745057e-07 -9.830602e-06 0)
(-9.659253e-07 -1.0805571e-05 0)
(-9.8075083e-07 -1.1796323e-05 0)
(-9.9211568e-07 -1.2799306e-05 0)
(-1.0002074e-06 -1.3811156e-05 0)
(-1.0052127e-06 -1.4828696e-05 0)
(-1.007317e-06 -1.5848935e-05 0)
(-1.0067049e-06 -1.6869069e-05 0)
(-1.0035597e-06 -1.7886475e-05 0)
(-9.9806373e-07 -1.8898716e-05 0)
(-9.903982e-07 -1.9903533e-05 0)
(-9.8074305e-07 -2.0898853e-05 0)
(-9.6927708e-07 -2.1882777e-05 0)
(-9.5617785e-07 -2.2853588e-05 0)
(-9.4162173e-07 -2.3809744e-05 0)
(-9.2578402e-07 -2.4749879e-05 0)
(-9.0883926e-07 -2.5672801e-05 0)
(-8.9096192e-07 -2.6577491e-05 0)
(-8.7232878e-07 -2.7463106e-05 0)
(-8.5312917e-07 -2.8328972e-05 0)
(-8.336054e-07 -2.9174546e-05 0)
(-8.1419695e-07 -2.9999074e-05 0)
(-7.9582717e-07 -3.0799879e-05 0)
(-7.7973567e-07 -3.1560771e-05 0)
(-7.5089455e-07 -3.2240125e-05 0)
(0 0 0)
(-1.2986175e-12 -8.3544227e-08 0)
(-2.713105e-12 -2.6775636e-07 0)
(-4.1524433e-12 -5.4304735e-07 0)
(-5.5961913e-12 -9.0353859e-07 0)
(-7.0412064e-12 -1.3433302e-06 0)
(-8.4859496e-12 -1.856453e-06 0)
(-9.9273842e-12 -2.4370572e-06 0)
(-1.1360828e-11 -3.0794719e-06 0)
(-1.2780985e-11 -3.7782193e-06 0)
(-1.4181989e-11 -4.5280163e-06 0)
(-1.5558181e-11 -5.3237752e-06 0)
(-1.6903744e-11 -6.1606026e-06 0)
(-1.8213406e-11 -7.0337989e-06 0)
(-1.9481881e-11 -7.938858e-06 0)
(-2.0704586e-11 -8.871466e-06 0)
(-2.1876943e-11 -9.8275009e-06 0)
(-2.2995134e-11 -1.0803032e-05 0)
(-2.4055318e-11 -1.1794317e-05 0)
(-2.5054449e-11 -1.2797805e-05 0)
(-2.5989486e-11 -1.3810132e-05 0)
(-2.6858307e-11 -1.4828121e-05 0)
(-2.7659083e-11 -1.5848782e-05 0)
(-2.839144e-11 -1.686931e-05 0)
(-2.9056472e-11 -1.7887082e-05 0)
(-2.9658201e-11 -1.8899662e-05 0)
(-3.0203606e-11 -1.9904792e-05 0)
(-3.0701634e-11 -2.0900397e-05 0)
(-3.1158404e-11 -2.1884579e-05 0)
(-3.1576923e-11 -2.2855622e-05 0)
(-3.1963934e-11 -2.3811984e-05 0)
(-3.2344676e-11 -2.4752298e-05 0)
(-3.2762634e-11 -2.5675373e-05 0)
(-3.3251997e-11 -2.6580188e-05 0)
(-3.3790979e-11 -2.7465894e-05 0)
(-3.4300677e-11 -2.8331786e-05 0)
(-3.4693309e-11 -2.917719e-05 0)
(-3.4937128e-11 -3.0000949e-05 0)
(-3.5101653e-11 -3.0799738e-05 0)
(-3.5223012e-11 -3.1565123e-05 0)
(-3.5203215e-11 -3.2313056e-05 0)
(0 0 0)
(1.0144803e-07 -9.7972026e-08 0)
(1.9792538e-07 -2.8199203e-07 0)
(2.8786436e-07 -5.5619846e-07 0)
(3.7133666e-07 -9.1566363e-07 0)
(4.4860736e-07 -1.3545206e-06 0)
(5.1989846e-07 -1.8667569e-06 0)
(5.8541352e-07 -2.4465085e-06 0)
(6.4535028e-07 -3.088101e-06 0)
(6.9990479e-07 -3.7860556e-06 0)
(7.4927234e-07 -4.5350891e-06 0)
(7.9364759e-07 -5.3301136e-06 0)
(8.3322462e-07 -6.1662357e-06 0)
(8.6819685e-07 -7.0387556e-06 0)
(8.9875699e-07 -7.9431672e-06 0)
(9.2509704e-07 -8.8751564e-06 0)
(9.4740816e-07 -9.8306012e-06 0)
(9.6588072e-07 -1.080557e-05 0)
(9.8070418e-07 -1.1796322e-05 0)
(9.9206708e-07 -1.2799305e-05 0)
(1.000157e-06 -1.3811155e-05 0)
(1.0051606e-06 -1.4828695e-05 0)
(1.0072633e-06 -1.5848935e-05 0)
(1.0066497e-06 -1.6869068e-05 0)
(1.0035033e-06 -1.7886475e-05 0)
(9.9800613e-07 -1.8898715e-05 0)
(9.9033953e-07 -1.9903533e-05 0)
(9.8068341e-07 -2.0898853e-05 0)
(9.6921654e-07 -2.1882777e-05 0)
(9.5611647e-07 -2.2853588e-05 0)
(9.4155954e-07 -2.3809744e-05 0)
(9.2572101e-07 -2.4749879e-05 0)
(9.0877538e-07 -2.5672801e-05 0)
(8.9089706e-07 -2.6577491e-05 0)
(8.722629e-07 -2.7463106e-05 0)
(8.530623e-07 -2.8328972e-05 0)
(8.3353767e-07 -2.9174546e-05 0)
(8.1412858e-07 -2.9999074e-05 0)
(7.9575833e-07 -3.0799879e-05 0)
(7.7966651e-07 -3.1560771e-05 0)
(7.508253e-07 -3.2240126e-05 0)
(6.641969e-08 -3.3624236e-08 0)
(2.2735357e-07 -1.3840767e-07 0)
(4.1323878e-07 -3.2347809e-07 0)
(5.9074588e-07 -5.9512178e-07 0)
(7.569227e-07 -9.5180077e-07 0)
(9.1096122e-07 -1.3879192e-06 0)
(1.0530867e-06 -1.8975097e-06 0)
(1.1836665e-06 -2.4747064e-06 0)
(1.3030913e-06 -3.1138328e-06 0)
(1.4117528e-06 -3.8094095e-06 0)
(1.5100416e-06 -4.5561529e-06 0)
(1.5983472e-06 -5.3489748e-06 0)
(1.6770578e-06 -6.1829814e-06 0)
(1.7465603e-06 -7.0534729e-06 0)
(1.8072403e-06 -7.9559425e-06 0)
(1.8594819e-06 -8.886076e-06 0)
(1.9036675e-06 -9.8397509e-06 0)
(1.940178e-06 -1.0813036e-05 0)
(1.9693924e-06 -1.1802188e-05 0)
(1.9916877e-06 -1.2803657e-05 0)
(2.0074394e-06 -1.3814076e-05 0)
(2.0170206e-06 -1.4830269e-05 0)
(2.0208025e-06 -1.5849245e-05 0)
(2.0191543e-06 -1.6868198e-05 0)
(2.0124427e-06 -1.7884506e-05 0)
(2.0010324e-06 -1.889573e-05 0)
(1.9852858e-06 -1.9899613e-05 0)
(1.9655629e-06 -2.0894078e-05 0)
(1.9422212e-06 -2.1877228e-05 0)
(1.9156159e-06 -2.2847344e-05 0)
(1.8860993e-06 -2.3802885e-05 0)
(1.8540215e-06 -2.4742482e-05 0)
(1.8197308e-06 -2.5664946e-05 0)
(1.7835746e-06 -2.6569257e-05 0)
(1.7458995e-06 -2.7454578e-05 0)
(1.707037e-06 -2.8320255e-05 0)
(1.667174e-06 -2.9165772e-05 0)
(1.625283e-06 -2.9990266e-05 0)
(1.5746969e-06 -3.0788226e-05 0)
(1.4679857e-06 -3.1532129e-05 0)
(1.2507326e-06 -3.202605e-05 0)
)
;

boundaryField
{
    left
    {
        type            calculated;
    }
    right
    {
        type            calculated;
    }
    top
    {
        type            calculated;
    }
    bottom
    {
        type            calculated;
    }
    frontAndBack
    {
        type            empty;
    }
}


// ************************************************************************* //
