/*--------------------------------*- C++ -*----------------------------------*\
| =========                 |                                                 |
| \\      /  F ield         | OpenFOAM: The Open Source CFD Toolbox           |
|  \\    /   O peration     | Version:  2512                                  |
|   \\  /    A nd           | Website:  www.openfoam.com                      |
|    \\/     M anipulation  |                                                 |
\*---------------------------------------------------------------------------*/
FoamFile
{
    version     2.0;
    format      ascii;
    arch        "LSB;label=32;scalar=64";
    class       volScalarField;
    location    "0.6";
    object      sigmaEq;
}
// * * * * * * * * * * * * * * * * * * * * * * * * * * * * * * * * * * * * * //

dimensions      [1 -1 -2 0 0 0 0];

internalField   nonuniform List<scalar> 
160
(
942593.43
1021232.3
973377.33
908999.53
842510.77
777643.38
714875.44
654258.06
595787.05
539457.72
485267.46
433215.21
383301.77
335530.93
289911.69
246462.32
205218.49
166250.84
129707.49
95933.459
65874.763
42697.737
35661.749
48272.256
68336.205
89377.156
109585.59
128378.01
145526.37
160929.68
174539.4
186329.48
196279.93
204360.32
210523.19
214954.97
220980.59
250741.98
463679.42
1303151.1
398489.29
394659.77
368546.97
343804.14
321248.73
299911.88
279450.69
259782.72
240897.59
222801.82
205507.04
189028.2
173383.93
158597.34
144697.06
131718.37
119704.34
108706.71
98785.77
90008.443
82443.089
76149.537
71163.905
67480.438
65036.28
63706.93
63316.561
63659.955
64526.927
65721.35
67072.089
68436.874
69698.608
70742.767
71364.167
70933.503
67764.569
65474.21
143035.45
401563.55
398473.87
394641.78
368528.07
343784.89
321229.31
299892.36
279431.15
259763.22
240878.22
222782.67
205488.19
189009.74
173365.96
158579.95
144680.32
131702.38
119689.19
108692.49
98772.561
89996.339
82432.172
76139.868
71155.519
67473.32
65030.38
63702.17
63312.861
63657.19
64524.857
65719.778
67071.221
68437.542
69701.719
70747.988
71369.701
70937.484
67767.059
65478.912
143042.36
401564.64
942577.1
1021214.1
973358.05
908979.7
842490.67
777623.14
714855.15
654237.81
595766.9
539437.76
485247.76
433195.84
383282.79
335512.41
289893.66
246444.83
205201.56
166234.47
129691.66
95918.116
65859.985
42684.678
35655.585
48273.197
68339.815
89381.557
109590.11
128382.45
145530.77
160934.28
174544.51
186335.19
196286.19
204366.76
210529.44
214960.73
220985.24
250744.7
463679.65
1303152.7
)
;

boundaryField
{
    left
    {
        type            calculated;
        value           nonuniform List<scalar> 4(1113409.3 321903.07 321888.9 1113391);
    }
    right
    {
        type            calculated;
        value           nonuniform List<scalar> 4(1553088.4 529119.14 529113.01 1553090.4);
    }
    top
    {
        type            calculated;
        value           nonuniform List<scalar> 
40
(
1167592.3
1348613.7
1287827.4
1205623.2
1117557
1031125.4
947359.38
866427.76
788338.18
713083.04
640653.82
571041.75
504237.51
440231.1
379011.87
320568.58
264889.52
211962.77
161776.73
114322.02
69599.533
27698.225
12622.156
48878.144
82900.256
114333.39
143166.64
169410.76
193081.84
214197.62
232774.58
248825.08
262355.75
273372.14
281983.55
289239.1
303948.07
367021.58
774186.71
1576142.3
)
;
    }
    bottom
    {
        type            calculated;
        value           nonuniform List<scalar> 
40
(
1167606.8
1348631
1287845.8
1205642.4
1117576.5
1031145
947379.01
866447.32
788357.57
713102.19
640672.63
571060.16
504255.44
440248.48
379028.63
320584.67
264904.89
211977.35
161790.49
114334.91
69611.517
27709.206
12612.503
48868.894
82891.849
114325.81
143159.84
169404.54
193075.74
214191.07
232767.36
248817.82
262349.21
273366.4
281977.74
289232.25
303941.05
367016.66
774184.66
1576141
)
;
    }
    frontAndBack
    {
        type            empty;
    }
}


// ************************************************************************* //
