/*--------------------------------*- C++ -*----------------------------------*\
| =========                 |                                                 |
| \\      /  F ield         | OpenFOAM: The Open Source CFD Toolbox           |
|  \\    /   O peration     | Version:  2512                                  |
|   \\  /    A nd           | Website:  www.openfoam.com                      |
|    \\/     M anipulation  |                                                 |
\*---------------------------------------------------------------------------*/
FoamFile
{
    version     2.0;
    format      ascii;
    arch        "LSB;label=32;scalar=64";
    class       surfaceSymmTensorField;
    location    "0.6";
    object      sigmaf;
}
// * * * * * * * * * * * * * * * * * * * * * * * * * * * * * * * * * * * * * //

dimensions      [1 -1 -2 0 0 0 0];

internalField   nonuniform List<symmTensor> 
276
(
(-1202393.6 -38988.267 0 -37227.566 0 -286066.42)
(-817607.59 -123785.13 0 -20008.908 0 -193296.12)
(-1116760.7 -42357.099 0 -3133.3934 0 -258437.09)
(-770231.32 -85828.556 0 5363.2275 0 -176508.02)
(-1038246.5 -43948.397 0 -80.717393 0 -239613.97)
(-718456.05 -78838.742 0 3592.6095 0 -164968.49)
(-963020.49 -43471.09 0 197.71866 0 -222189.87)
(-667343.22 -75678.293 0 1524.674 0 -153650.43)
(-890221.8 -42391.817 0 129.24485 0 -205405.97)
(-617911.2 -73377.983 0 922.17401 0 -142382.08)
(-819771.15 -41173.527 0 98.123243 0 -189155.31)
(-570116.65 -71155.176 0 781.82254 0 -131384.96)
(-751667.45 -39928.708 0 89.168653 0 -173441.14)
(-523916.58 -68931.857 0 754.09804 0 -120729.8)
(-685911.27 -38679.93 0 87.579703 0 -158267.01)
(-479291.87 -66705.528 0 748.27659 0 -110433.14)
(-622499.55 -37430.933 0 87.875801 0 -143633.46)
(-436234.25 -64480.011 0 746.43024 0 -100497.19)
(-561426.63 -36182.718 0 88.738844 0 -129539.51)
(-394738.67 -62257.088 0 744.89739 0 -90921.641)
(-502686.15 -34935.19 0 89.763161 0 -115983.78)
(-354800.36 -60037.652 0 743.57469 0 -81705.411)
(-446270.53 -33688.759 0 90.939832 0 -102964.52)
(-316414.59 -57822.13 0 741.92856 0 -72847.538)
(-392171.99 -32443.189 0 92.17706 0 -90479.957)
(-279576.06 -55610.949 0 740.41074 0 -64346.689)
(-340381.68 -31198.893 0 93.531718 0 -78528.034)
(-244279.35 -53404.393 0 738.52398 0 -56201.729)
(-290890.58 -29955.593 0 94.935754 0 -67106.688)
(-210518.34 -51202.831 0 736.78632 0 -48411.127)
(-243688.74 -28713.727 0 96.444458 0 -56213.607)
(-178286.87 -49006.522 0 734.66311 0 -40973.585)
(-198766.01 -27472.979 0 97.998072 0 -45846.465)
(-147578.07 -46815.799 0 732.71901 0 -33887.389)
(-156111.42 -26233.809 0 99.644844 0 -36002.717)
(-118385.08 -44630.897 0 730.3812 0 -27151.085)
(-115713.81 -24995.866 0 101.33243 0 -26679.802)
(-90700.35 -42452.115 0 728.25304 0 -20762.792)
(-77561.306 -23759.624 0 103.10107 0 -17874.97)
(-64516.382 -40279.66 0 725.72766 0 -14720.92)
(-41641.87 -22524.703 0 104.90594 0 -9585.4532)
(-39825.022 -38113.787 0 723.4403 0 -9023.4419)
(-7942.8463 -21291.589 0 106.77886 0 -1808.3233)
(-16618.232 -35954.68 0 720.75377 0 -3668.6488)
(23548.564 -20059.885 0 108.6826 0 5459.3646)
(5112.6628 -33802.562 0 718.32805 0 1345.6133)
(52845.681 -18830.092 0 110.64042 0 12220.689)
(25376.166 -31657.6 0 715.50064 0 6021.1538)
(79961.965 -17601.814 0 112.62395 0 18478.751)
(44181.394 -29520.004 0 712.94264 0 10360.232)
(104911.35 -16375.582 0 114.64093 0 24236.768)
(61537.271 -27389.972 0 709.9797 0 14364.75)
(127708.02 -15151.135 0 116.67779 0 29498.006)
(77453.331 -25267.799 0 707.22911 0 18037.052)
(148366.71 -13929.12 0 118.7236 0 34265.868)
(91939.008 -23153.837 0 704.12646 0 21379.185)
(166902.41 -12709.453 0 120.88236 0 38543.838)
(105004.21 -21048.408 0 701.16705 0 24393.549)
(183330.15 -11492.074 0 123.51713 0 42335.462)
(116658.5 -18951.316 0 698.42333 0 27082.368)
(197664.24 -10276.265 0 127.76954 0 45644.31)
(126910.66 -16861.987 0 696.75146 0 29447.864)
(209920.05 -9063.2584 0 137.73093 0 48474.872)
(135767.33 -14781.122 0 697.56822 0 31491.899)
(220119.29 -7861.7576 0 168.36374 0 50835.612)
(143230.84 -12715.81 0 706.87588 0 33216.397)
(228309.88 -6713.5522 0 276.06996 0 52750.604)
(149291.33 -10690.507 0 754.17133 0 34625.886)
(234600.85 -5816.9002 0 644.22546 0 54287.324)
(153895.91 -8768.5029 0 996.77549 0 35744.466)
(239211.3 -6120.2421 0 1568.0367 0 55564.461)
(156846.48 -7057.6364 0 2187.6045 0 36700.173)
(242044.15 -11749.805 0 2144.8199 0 56351.302)
(157519.45 -5241.9695 0 7506.2782 0 38082.859)
(239454.35 -36098.382 0 -21383.448 0 50324.055)
(154820.85 227.74317 0 26208.589 0 41776.024)
(195333.14 -104030.69 0 -170533.67 0 5722.954)
(149625.03 41826.999 0 69643.547 0 50600.44)
(199471.42 193229.12 0 -104191.9 0 21987.581)
(-406076.87 -109946.98 0 -6395.2228 0 -95185.868)
(-10.77651 -117225.29 0 -1.2918979 0 -2.7850172)
(-375812.3 -102505.74 0 1148.6328 0 -86460.847)
(-11.307048 -116090.25 0 0.029504038 0 -2.6025102)
(-347660.06 -96835.329 0 918.16067 0 -80017.362)
(-11.39261 -106990.29 0 0.40698769 0 -2.5351437)
(-321827 -93233.528 0 459.61232 0 -74161.706)
(-11.429032 -101511.04 0 0.40317371 0 -2.5444288)
(-297348.53 -90235.836 0 325.4415 0 -68543.789)
(-11.434463 -97855.929 0 0.41885942 0 -2.5420625)
(-273808.76 -87380.497 0 295.74881 0 -63118.387)
(-11.449978 -94694.316 0 0.3598913 0 -2.5592507)
(-251091.8 -84555.558 0 290.58055 0 -57877.206)
(-11.413038 -91647.882 0 0.3947964 0 -2.5426711)
(-229167.76 -81739.37 0 289.6914 0 -52818.016)
(-11.362259 -88628.517 0 0.35096737 0 -2.5410673)
(-208027.77 -78928.582 0 289.33757 0 -47939.638)
(-11.239742 -85618.644 0 0.40505178 0 -2.5003131)
(-187668.15 -76123.056 0 288.94618 0 -43241.355)
(-11.098846 -82615.219 0 0.36394954 0 -2.4772837)
(-168086.01 -73323.195 0 288.51045 0 -38722.499)
(-10.881782 -79618.019 0 0.42585476 0 -2.4129063)
(-149278.84 -70529.444 0 288.01054 0 -34382.499)
(-10.651556 -76627.394 0 0.37647732 0 -2.371172)
(-131243.8 -67742.29 0 287.47956 0 -30220.69)
(-10.346167 -73643.815 0 0.4371111 0 -2.2867052)
(-113978.12 -64962.18 0 286.89472 0 -26236.437)
(-10.03575 -70667.786 0 0.37350111 0 -2.2297499)
(-97478.618 -62189.582 0 286.28182 0 -22429.001)
(-9.6528348 -67699.805 0 0.42934497 0 -2.1284977)
(-81742.136 -59424.912 0 285.62102 0 -18797.657)
(-9.2733925 -64740.362 0 0.35154944 0 -2.0588868)
(-66765.156 -56668.601 0 284.93478 0 -15341.59)
(-8.8245404 -61789.923 0 0.40328218 0 -1.9433673)
(-52544.161 -53921.024 0 284.20735 0 -12059.989)
(-8.3872292 -58848.934 0 0.31416291 0 -1.8630153)
(-39075.321 -51182.563 0 283.45774 0 -8951.9685)
(-7.8839292 -55917.813 0 0.36372535 0 -1.7354317)
(-26354.794 -48453.545 0 282.67434 0 -6016.643)
(-7.4001481 -52996.951 0 0.26714253 0 -1.6460782)
(-14378.48 -45734.303 0 281.87214 0 -3253.0634)
(-6.8553258 -50086.714 0 0.31747048 0 -1.5087359)
(-3142.2559 -43025.117 0 281.04284 0 -660.27994)
(-6.3407538 -47187.441 0 0.21818479 0 -1.4129005)
(7358.2062 -40326.285 0 280.19705 0 1762.7085)
(-5.7771478 -44299.451 0 0.27236993 0 -1.2703334)
(17127.267 -37638.059 0 279.32833 0 4016.9065)
(-5.2678289 -41423.046 0 0.17475836 0 -1.175324)
(26169.443 -34960.727 0 278.44139 0 6103.358)
(-4.7416343 -38558.523 0 0.24066603 0 -1.038685)
(34489.309 -32294.591 0 277.50632 0 8023.1113)
(-4.3175094 -35706.2 0 0.1524197 0 -0.96117455)
(42091.563 -29640.041 0 276.49583 0 9777.2444)
(-3.9239311 -32866.457 0 0.20098442 0 -0.85914155)
(48980.953 -26997.534 0 275.29755 0 11366.827)
(-3.6610935 -30039.718 0 -0.023123478 0 -0.85020392)
(55162.02 -24366.988 0 273.92987 0 12792.912)
(-3.467022 -27226.086 0 -0.39622381 0 -0.89151826)
(60638.561 -21747.221 0 272.48313 0 14056.395)
(-3.4434977 -24424.568 0 -1.1580421 0 -1.0618938)
(65412.032 -19135.546 0 271.08399 0 15157.642)
(-3.5588541 -21632.304 0 -1.7097105 0 -1.2158226)
(69477.81 -16528.524 0 269.76298 0 16095.594)
(-3.801011 -18843.753 0 -1.5245076 0 -1.2289658)
(72811.887 -13919.435 0 270.51853 0 16865.17)
(-3.9489548 -16046.714 0 -0.11349452 0 -0.93748831)
(75322.764 -11274.265 0 296.67474 0 17450.64)
(-3.9653112 -13198.154 0 1.1551436 0 -0.64850022)
(76666.425 -8400.6183 0 491.05581 0 17805.573)
(-3.7344883 -10108.689 0 1.1436666 0 -0.59788194)
(75546.127 -4348.5237 0 1509.7052 0 17782.115)
(-3.2588597 -5933.913 0 -0.39268554 0 -0.84266429)
(67402.4 5013.6399 0 5223.201 0 16759.754)
(-2.5463102 2904.097 0 -1.9858573 0 -1.0458848)
(38534.333 33067.785 0 12689.246 0 11820.826)
(-1.9846843 29089.756 0 -2.2282918 0 -0.97222527)
(-24844.323 104535.42 0 -42273.271 0 -15488.676)
(-1.3814405 105153.95 0 -1.3685675 0 -0.63461723)
(-0.37050856 168209.46 0 -1.7629346 0 -0.49233303)
(406054.21 -109946.36 0 6393.8701 0 95180.325)
(817586.4 -123783.33 0 20007.122 0 193290.81)
(375789.33 -102505.11 0 -1148.5331 0 86455.568)
(770209.8 -85827.477 0 -5363.193 0 176503.06)
(347637.15 -96834.446 0 -917.69266 0 80012.182)
(718434.21 -78837.21 0 -3592.1746 0 164963.55)
(321804.01 -93232.29 0 -459.12607 0 74156.511)
(667321.16 -75676.151 0 -1524.2188 0 153645.45)
(297325.58 -90234.318 0 -324.94809 0 68538.607)
(617889.02 -73375.188 0 -921.71785 0 142377.07)
(273785.76 -87378.666 0 -295.28476 0 63113.187)
(570094.41 -71151.827 0 -781.38598 0 131379.93)
(251068.96 -84553.489 0 -290.09738 0 57872.045)
(523894.36 -68927.935 0 -753.65099 0 120724.78)
(229145.02 -81737.01 0 -289.21783 0 52812.878)
(479269.74 -66701.108 0 -747.83986 0 110428.13)
(208005.36 -78926.006 0 -288.83214 0 47934.583)
(436212.32 -64475.061 0 -745.97459 0 100492.23)
(187646.03 -76120.204 0 -288.44034 0 43236.368)
(394717.03 -62251.67 0 -744.44683 0 90916.751)
(168064.4 -73320.147 0 -287.97254 0 38717.637)
(354779.1 -60031.736 0 -743.09819 0 81700.617)
(149257.71 -70526.132 0 -287.47558 0 34377.747)
(316393.81 -57815.775 0 -741.4596 0 72842.85)
(131223.35 -67738.803 0 -286.92452 0 30216.098)
(279555.84 -55604.131 0 -739.91739 0 64342.135)
(113958.31 -64958.443 0 -286.35451 0 26231.991)
(244259.75 -53397.171 0 -738.05013 0 56197.315)
(97459.625 -62185.693 0 -285.73799 0 22424.743)
(210499.45 -51195.187 0 -736.29584 0 48406.881)
(81723.932 -59420.79 0 -285.10447 0 18793.576)
(178268.74 -48998.51 0 -734.20734 0 40969.508)
(66747.884 -56664.352 0 -284.42923 0 15337.72)
(147560.79 -46807.409 0 -732.25478 0 33883.507)
(52527.8 -53916.561 0 -283.7378 0 12056.322)
(118368.68 -44622.182 0 -729.96496 0 27147.395)
(39059.986 -51178 0 -283.00899 0 8948.5332)
(90684.893 -42443.071 0 -727.83352 0 20759.321)
(26340.466 -48448.791 0 -282.26406 0 6013.4312)
(64501.897 -40270.336 0 -725.36456 0 14717.661)
(14365.245 -45729.475 0 -281.48548 0 3250.0984)
(39811.563 -38104.187 0 -723.07363 0 9020.4207)
(3130.0876 -43020.123 0 -280.6905 0 657.55317)
(16605.804 -35944.85 0 -720.44696 0 3665.8516)
(-7369.2682 -40321.246 0 -279.86538 0 -1765.1847)
(-5124.0328 -33792.512 0 -718.01475 0 -1348.1648)
(-17137.293 -37632.877 0 -279.01876 0 -4019.1489)
(-25386.518 -31647.371 0 -715.2508 0 -6023.4851)
(-26178.49 -34955.521 0 -278.14345 0 -6105.3769)
(-44190.758 -29509.607 0 -712.67323 0 -10362.33)
(-34497.551 -32289.265 0 -277.25413 0 -8024.955)
(-61545.77 -27379.443 0 -709.78213 0 -14366.666)
(-42099.163 -29634.74 0 -276.4307 0 -9778.9833)
(-77461.082 -25257.171 0 -707.05468 0 -18038.801)
(-48988.103 -26992.236 0 -275.80996 0 -11368.595)
(-91946.254 -23143.218 0 -704.3261 0 -21380.903)
(-55168.861 -24361.83 0 -275.4129 0 -12794.832)
(-105011.23 -21037.857 0 -702.1537 0 -24395.396)
(-60645.277 -21742.072 0 -274.90825 0 -14058.504)
(-116665.57 -18940.839 0 -700.42338 0 -27084.46)
(-65418.943 -19130.275 0 -273.46936 0 -15159.787)
(-126917.93 -16851.411 0 -699.16043 0 -29450.098)
(-69485.23 -16522.919 0 -270.56347 0 -16097.491)
(-135774.7 -14770.305 0 -698.74792 0 -31493.872)
(-72819.992 -13913.876 0 -269.26908 0 -16866.753)
(-143238.29 -12704.909 0 -705.81364 0 -33217.87)
(-75330.974 -11269.072 0 -294.81795 0 -17452.106)
(-149298.85 -10680.016 0 -751.83165 0 -34627.081)
(-76673.933 -8395.9483 0 -490.93846 0 -17807.278)
(-153903.47 -8758.6004 0 -995.57651 0 -35745.933)
(-75551.897 -4344.1123 0 -1512.2037 0 -17784.023)
(-156853.88 -7048.2326 0 -2189.5095 0 -36702.32)
(-67406.232 5018.0954 0 -5226.7042 0 -16761.447)
(-157525.84 -5232.7646 0 -7510.3045 0 -38085.263)
(-38537.637 33072.244 0 -12691.982 0 -11822.22)
(-154825.46 236.61668 0 -26211.566 0 -41777.774)
(24842.302 104539.1 0 42271.2 0 15487.731)
(-149627.94 41835.26 0 -69644.63 0 -50601.362)
(-199472.33 193234.72 0 104191.19 0 -21987.954)
(1202373.1 -38987.769 0 37226.823 0 286061.53)
(1116740.1 -42356.586 0 3133.5381 0 258432.37)
(1038225.4 -43947.56 0 81.022984 0 239609.18)
(962999.2 -43469.857 0 -197.35837 0 222185.04)
(890200.25 -42390.303 0 -128.916 0 205401.08)
(819749.61 -41171.69 0 -97.776817 0 189150.42)
(751645.87 -39926.643 0 -88.851717 0 173436.24)
(685889.9 -38677.566 0 -87.240242 0 158262.15)
(622478.32 -37428.363 0 -87.559713 0 143628.64)
(561405.79 -36179.86 0 -88.397955 0 129534.78)
(502665.64 -34932.147 0 -89.44287 0 115979.12)
(446250.59 -33685.439 0 -90.597665 0 102960)
(392152.54 -32439.708 0 -91.857307 0 90475.543)
(340362.94 -31195.148 0 -93.197403 0 78523.787)
(290872.5 -29951.712 0 -94.627886 0 67102.585)
(243671.49 -28709.596 0 -96.130538 0 56209.697)
(198749.54 -27468.739 0 -97.71405 0 45842.729)
(156095.88 -26229.337 0 -99.362156 0 35999.196)
(115699.15 -24991.313 0 -101.08086 0 26676.478)
(77547.658 -23754.859 0 -102.85546 0 17871.878)
(41629.184 -22519.887 0 -104.68958 0 9582.5756)
(7931.2049 -21286.585 0 -106.57011 0 1805.685)
(-23559.226 -20054.861 0 -108.49972 0 -5461.7828)
(-52855.337 -18824.896 0 -110.46322 0 -12222.877)
(-79970.732 -17596.624 0 -112.47172 0 -18480.739)
(-104919.29 -16370.23 0 -114.51634 0 -24238.57)
(-127715.32 -15145.863 0 -116.67255 0 -29499.691)
(-148373.61 -13923.899 0 -119.00148 0 -34267.526)
(-166909.3 -12704.416 0 -121.59164 0 -38545.59)
(-183337.27 -11486.977 0 -124.53907 0 -42337.341)
(-197671.7 -10270.795 0 -128.60672 0 -45646.225)
(-209927.53 -9057.321 0 -137.75092 0 -48476.604)
(-220127.02 -7856.0502 0 -167.69183 0 -50837.241)
(-228317.37 -6708.5701 0 -275.34501 0 -52752.166)
(-234608.6 -5812.7316 0 -644.55724 0 -54289.19)
(-239218.85 -6116.12 0 -1569.6044 0 -55566.567)
(-242050.55 -11745.002 0 -2146.6755 0 -56353.206)
(-239458.43 -36093.48 0 21382.351 0 -50325.249)
(-195336.1 -104026.81 0 170532.9 0 -5723.815)
)
;

boundaryField
{
    left
    {
        type            calculated;
        value           nonuniform List<symmTensor> 4((-1326108.6 -60936.941 0 -128834.25 0 -335756.05) (-399535.95 -92020.632 0 -119860.79 0 -119860.79) (399514.75 -92019.139 0 119854.42 0 119854.42) (1326087.2 -60934.552 0 128832.27 0 335750.65));
    }
    right
    {
        type            calculated;
        value           nonuniform List<symmTensor> 4((-189.51604 1481.3272 0 -1712659.9 0 -395272.94) (-63.810994 2215.9693 0 -583468.11 0 -134661.21) (63.814632 2215.9526 0 583461.35 0 134659.65) (189.51485 1481.3089 0 1712662.1 0 395273.45));
    }
    top
    {
        type            calculated;
        value           nonuniform List<symmTensor> 
40
(
(1287488.6 -105.71631 0 58.387414 0 297126.22)
(1487103.8 -202.60155 0 73.793719 0 343194.82)
(1420079.6 -323.33449 0 75.835409 0 327728.17)
(1329437.3 -450.10271 0 75.82192 0 306810.72)
(1232330.7 -576.64888 0 75.098587 0 284401.34)
(1137026.1 -701.80025 0 74.103829 0 262407.74)
(1044660.5 -825.10501 0 72.904076 0 241092.33)
(955419.97 -946.23242 0 71.512058 0 220498.03)
(869312.86 -1064.8659 0 69.932139 0 200626.8)
(786330.8 -1180.6944 0 68.168441 0 181476.69)
(706464.35 -1293.4138 0 66.225588 0 163045.52)
(629703.78 -1402.7281 0 64.108703 0 145331.05)
(556038.73 -1508.3499 0 61.823371 0 128330.9)
(485458.06 -1610.0018 0 59.375616 0 112042.48)
(417949.81 -1707.4169 0 56.771889 0 96463.058)
(353501.31 -1800.3391 0 54.019052 0 81589.691)
(292099.11 -1888.5245 0 51.124362 0 67419.286)
(233729.09 -1971.7415 0 48.095449 0 53948.582)
(178376.46 -2049.7717 0 44.940295 0 41174.17)
(126025.81 -2122.4103 0 41.667215 0 29092.494)
(76661.15 -2189.4667 0 38.284831 0 17699.869)
(30265.967 -2250.7651 0 34.802048 0 6992.4851)
(-13176.756 -2306.1446 0 31.228036 0 -3033.5833)
(-53684.485 -2355.4601 0 27.572205 0 -12382.364)
(-91275.105 -2398.5823 0 23.844185 0 -21057.983)
(-125966.86 -2435.398 0 20.053797 0 -29064.648)
(-157778.45 -2465.8102 0 16.211097 0 -36406.671)
(-186729.35 -2489.7387 0 12.326556 0 -43088.544)
(-212840.06 -2507.1222 0 8.4111842 0 -49114.997)
(-236131.42 -2517.9205 0 4.4761623 0 -54490.832)
(-256622.23 -2522.1151 0 0.53171222 0 -59220.392)
(-274326.49 -2519.7031 0 -3.4137769 0 -63306.9)
(-289251.73 -2510.6901 0 -7.3525556 0 -66752.096)
(-301404.21 -2495.0973 0 -11.27455 0 -69557.42)
(-310904.56 -2472.9839 0 -15.177436 0 -71750.708)
(-318909.84 -2444.3209 0 -19.171123 0 -73599.003)
(-335135.5 -2407.6725 0 -24.323373 0 -77344.575)
(-404699.24 -2348.8371 0 -35.658759 0 -93400.361)
(-853716.94 -2201.945 0 -89.498871 0 -197032.26)
(-1738082.3 -1466.8926 0 -191.98802 0 -401140.22)
)
;
    }
    bottom
    {
        type            calculated;
        value           nonuniform List<symmTensor> 
40
(
(-1287504.5 -105.70482 0 -58.378828 0 -297129.9)
(-1487122.7 -202.59709 0 -73.783494 0 -343199.2)
(-1420099.9 -323.33331 0 -75.824469 0 -327732.85)
(-1329458.4 -450.10242 0 -75.810547 0 -306815.59)
(-1232352.2 -576.64881 0 -75.087023 0 -284406.29)
(-1137047.7 -701.80026 0 -74.092189 0 -262412.72)
(-1044682.2 -825.10508 0 -72.892428 0 -241097.32)
(-955441.52 -946.23257 0 -71.500455 0 -220503)
(-869334.23 -1064.8661 0 -69.920634 0 -200631.73)
(-786351.91 -1180.6947 0 -68.157082 0 -181481.55)
(-706485.09 -1293.4143 0 -66.214425 0 -163050.3)
(-629724.08 -1402.7286 0 -64.097782 0 -145335.73)
(-556058.5 -1508.3505 0 -61.812736 0 -128335.46)
(-485477.22 -1610.0026 0 -59.365308 0 -112046.9)
(-417968.29 -1707.4177 0 -56.761948 0 -96467.321)
(-353519.05 -1800.34 0 -54.009513 0 -81593.782)
(-292116.04 -1888.5255 0 -51.115258 0 -67423.191)
(-233745.17 -1971.7426 0 -48.086808 0 -53952.289)
(-178391.62 -2049.7729 0 -44.932146 0 -41177.667)
(-126040.02 -2122.4115 0 -41.659578 0 -29095.772)
(-76674.377 -2189.4679 0 -38.277724 0 -17702.92)
(-30278.192 -2250.7663 0 -34.795482 0 -6995.3047)
(13165.538 -2306.1458 0 -31.222013 0 3030.9961)
(53674.254 -2355.4613 0 -27.566713 0 12380.005)
(91265.827 -2398.5834 0 -23.839207 0 21055.843)
(125958.5 -2435.399 0 -20.049309 0 29062.718)
(157770.95 -2465.8114 0 -16.207076 0 36404.941)
(186722.49 -2489.7407 0 -12.322879 0 43086.962)
(212833.34 -2507.1249 0 -8.4075822 0 49113.447)
(236124.2 -2517.9227 0 -4.4722939 0 54489.168)
(256614.27 -2522.1144 0 -0.52744336 0 59218.556)
(274318.49 -2519.6985 0 3.4180706 0 63305.055)
(289244.52 -2510.6846 0 7.3564263 0 66750.432)
(301397.89 -2495.0961 0 11.277943 0 69555.961)
(310898.15 -2472.9892 0 15.180876 0 71749.229)
(318902.3 -2444.3288 0 19.175175 0 73597.263)
(335127.76 -2407.6765 0 24.327532 0 77342.788)
(404693.82 -2348.8359 0 35.661669 0 93399.111)
(853714.68 -2201.9445 0 89.500087 0 197031.73)
(1738080.8 -1466.8983 0 191.9888 0 401139.89)
)
;
    }
    frontAndBack
    {
        type            empty;
    }
}


// ************************************************************************* //
