/*--------------------------------*- C++ -*----------------------------------*\
| =========                 |                                                 |
| \\      /  F ield         | OpenFOAM: The Open Source CFD Toolbox           |
|  \\    /   O peration     | Version:  2512                                  |
|   \\  /    A nd           | Website:  www.openfoam.com                      |
|    \\/     M anipulation  |                                                 |
\*---------------------------------------------------------------------------*/
FoamFile
{
    version     2.0;
    format      ascii;
    arch        "LSB;label=32;scalar=64";
    class       volScalarField;
    location    "0.6";
    object      sigmaHyd;
}
// * * * * * * * * * * * * * * * * * * * * * * * * * * * * * * * * * * * * * //

dimensions      [1 -1 -2 0 0 0 0];

internalField   nonuniform List<scalar> 
160
(
-358715.02
-381798.95
-356267.36
-332556.95
-308147.11
-284321.77
-261234.34
-238925.25
-217398.27
-196652.17
-176684.84
-157493.88
-139076.73
-121430.6
-104552.5
-88439.27
-73087.554
-58493.825
-44654.386
-31565.394
-19222.854
-7622.6456
3239.4799
13367.879
22767.014
31441.442
39395.829
46634.986
53163.952
58987.893
64111.674
68539.46
72275.091
75327.445
77747.035
79798.895
83267.676
92369.813
157158.67
6432.2824
-165758.92
-129174.15
-119151.63
-110854.35
-102776.6
-94855.805
-87166.154
-79730.875
-72555.202
-65639.593
-58983.508
-52586.182
-46446.757
-40564.31
-34937.847
-29566.313
-24448.592
-19583.509
-14969.835
-10606.289
-6491.5418
-2624.2211
997.0858
4373.8283
7507.4891
10399.58
13051.647
15465.275
17642.107
19583.838
21292.137
22768.716
24016.247
25044.659
25900.898
26791.441
28360.466
31687.711
22628.563
-92271.379
165750.35
129166.6
119144.33
110847.07
102769.29
94848.483
87158.839
79723.599
72547.997
65632.493
58976.543
52579.381
46440.147
40557.913
34931.686
29560.409
24442.962
19578.17
14964.802
10601.576
6487.16
2620.18
-1000.7831
-4377.1854
-7510.5231
-10402.33
-13054.195
-15467.779
-17644.777
-19586.814
-21295.319
-22771.713
-24018.745
-25046.765
-25903.133
-26794.18
-28363.372
-31690.197
-22630.406
92269.33
358708.65
381792.09
356260.38
332549.83
308139.9
284314.53
261227.1
238918.04
217391.13
196645.13
176677.92
157487.12
139070.14
121424.22
104546.35
88433.37
73081.926
58488.484
44649.35
31560.675
19218.465
7618.5924
-3243.1943
-13371.26
-22770.078
-31444.213
-39398.354
-46637.381
-53166.402
-58990.562
-64114.53
-68542.172
-72277.417
-75329.489
-77749.264
-79801.676
-83270.573
-92371.942
-157159.77
-6432.2395
)
;

boundaryField
{
    left
    {
        type            zeroGradient;
    }
    right
    {
        type            zeroGradient;
    }
    top
    {
        type            zeroGradient;
    }
    bottom
    {
        type            zeroGradient;
    }
    frontAndBack
    {
        type            empty;
    }
}


// ************************************************************************* //
