/*--------------------------------*- C++ -*----------------------------------*\
| =========                 |                                                 |
| \\      /  F ield         | OpenFOAM: The Open Source CFD Toolbox           |
|  \\    /   O peration     | Version:  2512                                  |
|   \\  /    A nd           | Website:  www.openfoam.com                      |
|    \\/     M anipulation  |                                                 |
\*---------------------------------------------------------------------------*/
FoamFile
{
    version     2.0;
    format      ascii;
    arch        "LSB;label=32;scalar=64";
    class       volSymmTensorField;
    location    "0.6";
    object      sigma;
}
// * * * * * * * * * * * * * * * * * * * * * * * * * * * * * * * * * * * * * //

dimensions      [1 -1 -2 0 0 0 0];

internalField   nonuniform List<symmTensor> 
160
(
(-972903.83 -16047.059 7.9536597e-11 62319.545 9.9420747e-12 -165560.78)
(-1045038.3 -42879.659 1.5907319e-10 75856.373 -1.193049e-10 -176214.9)
(-987358.38 -42547.155 7.9536597e-11 82987.385 -3.1814639e-10 -164431.09)
(-921655.63 -42580.432 3.1814639e-10 77472.596 1.2725856e-09 -153487.82)
(-853959.25 -41594.402 -4.7721958e-10 71739.661 -3.1814639e-10 -142221.74)
(-787908.77 -40439.77 -3.1814639e-10 66168.896 -3.1814639e-10 -131225.43)
(-723955.51 -39243.508 -3.1814639e-10 60822.178 0 -120569.7)
(-662171.81 -38040.423 0 55669.256 5.0903422e-09 -110273.19)
(-602557.44 -36836.48 -6.3629278e-10 50700.3 8.9080989e-09 -100337.66)
(-545106.23 -35632.883 -3.1814639e-10 45912.254 1.2725856e-09 -90762.542)
(-489811.72 -34429.911 0 41304.049 -2.5451711e-09 -81546.849)
(-436667.19 -33227.69 -6.3629278e-10 36875.017 -2.5451711e-09 -72689.485)
(-385665.47 -32026.294 0 32624.537 2.5451711e-09 -64189.26)
(-336798.86 -30825.797 -3.1814639e-10 28551.959 2.5451711e-09 -56044.89)
(-290059.09 -29626.258 -6.3629278e-10 24656.595 0 -48254.999)
(-245437.4 -28427.742 9.5443917e-10 20937.713 0 -40818.124)
(-202924.48 -27230.304 -3.1814639e-10 17394.54 5.0903422e-09 -33732.717)
(-162510.59 -26034.002 -6.3629278e-10 14026.262 0 -26997.15)
(-124185.47 -24838.883 6.3629278e-10 10832.031 1.5271027e-08 -20609.717)
(-87938.498 -23644.999 -6.3629278e-10 7810.9598 0 -14568.643)
(-53758.605 -22452.391 -1.9088783e-09 4962.1287 0 -8872.0866)
(-21634.379 -21261.103 0 2284.5865 2.0361369e-08 -3518.1441)
(8445.9404 -20071.173 1.2725856e-09 -222.64539 1.0180684e-08 1495.1445)
(36494.421 -18882.647 -1.9088783e-09 -2560.5754 -1.5271027e-08 6169.7901)
(62523.426 -17695.573 -6.3629278e-10 -4730.2354 -5.0903422e-09 10507.853)
(86545.584 -16510.015 -1.2725856e-09 -6732.6926 0 14511.435)
(108573.83 -15326.094 -9.5443917e-10 -8569.0376 -1.5271027e-08 18182.69)
(128621.52 -14143.993 3.1814639e-10 -10240.397 -3.0542053e-08 21523.84)
(146702.49 -12963.945 -9.5443917e-10 -11747.842 -1.0180684e-08 24537.208)
(162830.77 -11785.857 -1.5907319e-09 -13092.269 1.5271027e-08 27225.181)
(177019.26 -10609.319 0 -14274.24 1.0180684e-08 29590.003)
(189278.03 -9434.4126 6.3629278e-10 -15293.244 0 31633.597)
(199612 -8264.6541 -1.2725856e-09 -16144.46 3.0542053e-08 33357.734)
(208020.2 -7115.6047 0 -16804.378 -2.0361369e-08 34766.513)
(214533.43 -6053.1918 3.1814639e-10 -17175.57 0 35883.247)
(219555.93 -5358.851 -9.5443917e-10 -16989.502 3.0542053e-08 36830.259)
(227042.01 -6514.3677 3.1814639e-10 -15670.218 -1.0180684e-08 38431.235)
(254801.99 -13346.377 -1.5907319e-09 -20324.771 1.0180684e-08 42632.221)
(450388.54 -57753.761 0 -51447.293 -2.0361369e-08 72534.772)
(760181.15 22997.71 9.5443917e-10 -743853.05 -1.0180684e-08 2968.7457)
(-388663.85 -123180.95 -1.9884149e-11 -32108.795 -1.9884149e-11 -76504.118)
(-356484.84 -105930.89 -2.3860979e-10 28581.223 -2.7837809e-10 -59618.839)
(-331741.27 -98002.005 -1.5907319e-10 29279.442 3.1814639e-10 -54993.06)
(-308014.38 -93455.875 -1.9884149e-10 26614.874 6.3629278e-10 -51163.547)
(-285204.36 -90296.663 -6.3629278e-10 24309.922 -6.3629278e-10 -47435.352)
(-263149.89 -87444.395 -3.1814639e-10 22362.081 3.1814639e-09 -43779.602)
(-241828.36 -84656.444 -1.5907319e-10 20560.428 6.3629278e-10 -40230.533)
(-221232.64 -81882.449 -4.7721958e-10 18838.881 0 -36798.865)
(-201359.91 -79114.299 -4.7721958e-10 17181.325 2.5451711e-09 -33487.016)
(-182208.02 -76351.159 -8.7490257e-10 15584.442 -1.2725856e-09 -30295.197)
(-163774.87 -73593.314 -4.7721958e-10 14047.498 0 -27223.158)
(-146058.21 -70841.209 -7.9536597e-10 12570.214 -3.8177567e-09 -24270.545)
(-129055.68 -68095.3 -9.5443917e-10 11152.375 -5.0903422e-09 -21436.965)
(-112764.7 -65356.046 -3.1814639e-10 9793.7618 -1.0180684e-08 -18721.989)
(-97182.528 -62623.893 -6.3629278e-10 8494.1471 7.6355133e-09 -16125.16)
(-82306.238 -59899.272 -7.9536597e-10 7253.2898 -7.6355133e-09 -13645.991)
(-68132.747 -57182.597 -1.5907319e-10 6070.9356 2.5451711e-09 -11283.966)
(-54658.803 -54474.261 -4.7721958e-10 4946.8177 -1.0180684e-08 -9038.5428)
(-41881.008 -51774.634 -6.3629278e-10 3880.6566 -5.0903422e-09 -6909.1548)
(-29795.818 -49084.061 -1.1135124e-09 2872.1615 0 -4895.2103)
(-18399.559 -46402.864 -1.1135124e-09 1921.0302 5.0903422e-09 -2996.0962)
(-7688.4344 -43731.342 -6.3629278e-10 1026.9502 0 -1211.179)
(2341.4648 -41069.778 -3.1814639e-10 189.59913 3.0542053e-08 460.19344)
(11694.15 -38418.438 -1.4316588e-09 -591.35479 -2.5451711e-08 2018.69)
(20373.725 -35777.588 -1.1135124e-09 -1316.2524 -2.0361369e-08 3464.995)
(28384.388 -33147.514 -9.5443917e-10 -1985.4547 0 4799.8061)
(35730.444 -30528.566 -1.1135124e-09 -2599.3396 -2.0361369e-08 6023.8372)
(42416.325 -27921.163 -4.7721958e-10 -3158.3198 1.5271027e-08 7137.8192)
(48446.554 -25325.513 -7.9536597e-10 -3662.7448 1.0180684e-08 8142.5108)
(53825.571 -22740.996 -1.2725856e-09 -4112.7523 -5.0903422e-09 9038.6944)
(58557.366 -20165.747 -4.7721958e-10 -4508.0947 -2.0361369e-08 9827.1403)
(62645.066 -17597.052 -1.4316588e-09 -4847.5563 -4.0722738e-08 10508.638)
(66090.139 -15031.512 -3.1814639e-10 -5125.8196 4.0722738e-08 11084.422)
(68890.14 -12456.907 -4.7721958e-10 -5315.2349 3.0542053e-08 11559.074)
(71028.414 -9797.4729 -1.1135124e-09 -5279.9801 0 11954.261)
(72437.225 -6635.4329 -6.3629278e-10 -4428.183 -2.0361369e-08 12365.28)
(72806.989 -851.61933 -4.7721958e-10 -815.03538 -3.0542053e-08 13089.446)
(71147.004 15939.495 -3.1814639e-10 9291.0309 -1.0180684e-08 14625.097)
(59955.871 75714.856 -1.5907319e-10 -2514.1357 -6.1084107e-08 10443.952)
(46155.191 158880.31 -1.2725856e-09 -280382.54 -1.0180684e-08 -42586.79)
(388643.96 -123179.88 1.7398631e-11 32106.935 9.9420747e-12 76500.163)
(356464.37 -105930.33 0 -28579.925 -1.193049e-10 59615.353)
(331720.6 -98001.262 7.9536597e-11 -29277.297 -1.5907319e-10 54989.69)
(307993.6 -93454.811 -7.9536597e-11 -26612.567 1.4316588e-09 51160.188)
(285183.51 -90295.28 1.5907319e-10 -24307.615 -9.5443917e-10 47431.981)
(263129.02 -87442.718 0 -22359.791 1.2725856e-09 43776.223)
(241807.51 -84654.492 7.9536597e-11 -20558.151 6.3629278e-10 40227.156)
(221211.9 -81880.234 -7.9536597e-11 -18836.612 -6.3629278e-10 36795.507)
(201339.36 -79111.832 -2.3860979e-10 -17179.064 3.8177567e-09 33483.691)
(182187.75 -76348.445 0 -15582.192 0 30291.92)
(163754.95 -73590.364 0 -14045.266 0 27219.943)
(146038.75 -70838.028 -1.5907319e-10 -12568.009 0 24267.407)
(129036.73 -68091.899 0 -11150.209 0 21433.914)
(112746.35 -65352.433 7.9536597e-10 -9791.647 -5.0903422e-09 18719.037)
(97164.838 -62620.078 -3.1814639e-10 -8492.0965 1.7816198e-08 16122.317)
(82289.275 -59895.265 3.1814639e-10 -7251.3151 -2.5451711e-09 13643.266)
(68116.566 -57178.409 0 -6069.048 -2.5451711e-09 11281.367)
(54643.458 -54469.903 1.5907319e-10 -4945.0262 0 9036.0785)
(41866.543 -51770.118 0 -3878.9693 -5.0903422e-09 6906.8316)
(29782.276 -49079.399 1.5907319e-10 -2870.5838 1.0180684e-08 4893.0349)
(18386.972 -46398.07 0 -1919.5657 -1.5271027e-08 2994.0738)
(7676.8261 -43726.429 0 -1025.5999 0 1209.3138)
(-2352.0873 -41064.759 -1.5907319e-10 -188.36209 2.5451711e-08 -461.89989)
(-11703.802 -38413.326 0 592.48532 -2.0361369e-08 -2020.2394)
(-20382.46 -35772.394 3.1814639e-10 1317.2865 1.0180684e-08 -3466.3953)
(-28392.305 -33142.249 0 1986.392 5.0903422e-09 -4801.0752)
(-35737.686 -30523.254 -1.5907319e-10 2600.1135 1.0180684e-08 -6025.0132)
(-42423.056 -27915.859 -3.1814639e-10 3158.6941 -2.0361369e-08 -7138.9749)
(-48452.947 -25320.259 3.1814639e-10 3662.3591 -4.0722738e-08 -8143.7433)
(-53831.814 -22735.783 -9.5443917e-10 4111.4398 -5.0903422e-09 -9040.0681)
(-58563.697 -20160.468 -1.5907319e-10 4506.3482 5.0903422e-08 -9828.6089)
(-62651.72 -17591.609 -1.5907319e-10 4846.601 -1.0180684e-08 -10510.022)
(-66097.291 -15026.021 9.5443917e-10 5126.6309 -2.0361369e-08 -11085.575)
(-68897.59 -12451.637 3.1814639e-10 5317.3403 -3.0542053e-08 -11560.045)
(-71035.628 -9792.5779 -1.5907319e-10 5281.5218 2.0361369e-08 -11955.292)
(-72443.531 -6630.8251 1.5907319e-10 4427.5349 0 -12366.545)
(-72811.824 -847.06446 -1.5907319e-10 812.49396 -2.0361369e-08 -13090.787)
(-71150.592 15944.018 1.5907319e-10 -9293.7547 2.0361369e-08 -14626.245)
(-59958.465 75718.983 0 2512.0507 -1.0180684e-08 -10444.803)
(-46156.281 158883.05 -4.7721958e-10 280378.43 0 42585.845)
(972886.81 -16046.499 2.1872564e-10 -62318.699 -7.9536597e-11 165557.84)
(1045019.6 -42879.206 8.7490257e-10 -75855.034 1.5907319e-10 176211.73)
(987338.89 -42546.477 3.1814639e-10 -82985.628 5.5675618e-10 164427.87)
(921635.68 -42579.386 0 -77470.742 3.1814639e-10 153484.53)
(853939.08 -41593.023 0 -71737.779 -3.1814639e-10 142218.42)
(787888.51 -40438.093 7.9536597e-10 -66167.006 3.1814639e-10 131222.09)
(723935.24 -39241.556 3.1814639e-10 -60820.289 6.3629278e-10 120566.36)
(662151.64 -38038.208 -1.2725856e-09 -55667.373 1.2725856e-09 110269.87)
(602537.44 -36834.012 -6.3629278e-10 -50698.429 0 100334.37)
(545086.49 -35630.169 1.9088783e-09 -45910.4 1.2725856e-09 90759.289)
(489792.31 -34426.961 0 -41302.219 -5.0903422e-09 81543.653)
(436648.21 -33224.509 1.5907319e-09 -36873.218 -1.2725856e-08 72686.361)
(385646.99 -32022.893 -3.1814639e-10 -32622.777 5.0903422e-09 64186.22)
(336780.95 -30822.183 3.1814639e-10 -28550.247 -2.5451711e-09 56041.946)
(290041.82 -29622.443 -3.1814639e-10 -24654.938 7.6355133e-09 48252.161)
(245420.83 -28423.734 1.2725856e-09 -20936.119 7.6355133e-09 40815.402)
(202908.67 -27226.116 2.2270247e-09 -17393.016 -1.0180684e-08 33730.12)
(162495.58 -26029.643 0 -14024.815 -2.5451711e-09 26994.685)
(124171.32 -24834.367 6.3629278e-10 -10830.666 -5.0903422e-09 20607.392)
(87925.24 -23640.337 0 -7809.6808 2.5451711e-08 14566.465)
(53746.272 -22447.597 2.5451711e-09 -4960.9384 5.0903422e-09 8870.0606)
(21622.99 -21256.189 1.2725856e-09 -2283.4867 -1.0180684e-08 3516.2734)
(-8456.3791 -20066.155 3.1814639e-09 223.6551 5.0903422e-09 -1496.8589)
(-36503.927 -18877.534 1.2725856e-09 2561.4976 -2.5451711e-08 -6171.3509)
(-62532.041 -17690.378 2.5451711e-09 4731.0738 -1.0180684e-08 -10509.267)
(-86553.373 -16504.742 2.5451711e-09 6733.4465 2.5451711e-08 -14512.714)
(-108580.89 -15320.767 1.2725856e-09 8569.6806 -2.5451711e-08 -18183.855)
(-128628.02 -14138.691 2.8633175e-09 10240.827 -5.0903422e-09 -21524.945)
(-146708.79 -12958.721 3.4996103e-09 11747.922 -2.0361369e-08 -24538.339)
(-162837.26 -11780.708 2.5451711e-09 13091.987 0 -27226.413)
(-177026.16 -10604.068 1.5907319e-09 14273.888 2.0361369e-08 -29591.322)
(-189285.05 -9428.8892 1.9088783e-09 15293.387 -2.0361369e-08 -31634.849)
(-199618.84 -8259.0273 3.1814639e-09 16145.393 0 -33358.808)
(-208026.74 -7110.2798 3.1814639e-10 16805.728 0 -34767.456)
(-214539.97 -6048.393 6.3629278e-10 17176.451 -1.0180684e-08 -35884.276)
(-219562.74 -5354.4184 2.2270247e-09 16989.255 2.0361369e-08 -36831.543)
(-227048.32 -6509.8442 1.2725856e-09 15669.174 1.0180684e-08 -38432.572)
(-254806.48 -13341.696 3.1814639e-10 20323.861 -3.0542053e-08 -42633.204)
(-450390.91 -57749.486 -3.1814639e-10 51446.881 3.0542053e-08 -72535.278)
(-760181.96 23000.158 2.2270247e-09 743853.96 4.0722738e-08 -2968.7259)
)
;

boundaryField
{
    left
    {
        type            calculated;
        value           nonuniform List<symmTensor> 4((-1214190 -60936.941 0 -16915.567 0 -223837.37) (-359582.36 -92020.632 0 -79907.19 0 -79907.19) (359563.27 -92019.139 0 79902.949 0 79902.949) (1214170.3 -60934.552 0 16915.39 0 223833.76));
    }
    right
    {
        type            calculated;
        value           nonuniform List<symmTensor> 4((131568.13 1481.3272 0 -1580902.3 0 -263515.29) (44823.26 2215.9693 0 -538581.04 0 -89774.142) (-44822.736 2215.9526 0 538574.8 0 89773.102) (-131568.3 1481.3089 0 1580904.3 0 263515.64));
    }
    top
    {
        type            calculated;
        value           nonuniform List<symmTensor> 
40
(
(1188446.5 -105.71631 0 -98983.688 0 198084.15)
(1372705.5 -202.60155 0 -114324.48 0 228796.55)
(1310836.8 -323.33449 0 -109166.89 0 218485.44)
(1227167.1 -450.10271 0 -102194.42 0 204540.48)
(1137530.3 -576.64888 0 -94725.348 0 189600.89)
(1049556.8 -701.80025 0 -87395.142 0 174938.49)
(964296.42 -825.10501 0 -80291.206 0 160728.22)
(881920.62 -946.23242 0 -73427.832 0 146998.69)
(802437.26 -1064.8659 0 -66805.667 0 133751.2)
(725838.57 -1180.6944 0 -60424.06 0 120984.46)
(652115.84 -1293.4138 0 -54282.28 0 108697.01)
(581260.1 -1402.7281 0 -48379.575 0 96887.368)
(513261.77 -1508.3499 0 -42715.143 0 85553.932)
(448110.56 -1610.0018 0 -37288.119 0 74694.989)
(385795.46 -1707.4169 0 -32097.581 0 64308.705)
(326304.75 -1800.3391 0 -27142.545 0 54393.127)
(269626.02 -1888.5245 0 -22421.971 0 44946.19)
(215746.23 -1971.7415 0 -17934.765 0 35965.721)
(164651.74 -2049.7717 0 -13679.783 0 27449.446)
(116328.31 -2122.4103 0 -9655.8309 0 19394.996)
(70761.193 -2189.4667 0 -5861.6717 0 11799.913)
(27935.138 -2250.7651 0 -2296.0263 0 4661.6567)
(-12165.561 -2306.1446 0 1042.4225 0 -2022.3889)
(-49557.03 -2355.4601 0 4155.027 0 -8254.9096)
(-84255.777 -2398.5823 0 7043.1719 0 -14038.656)
(-116278.65 -2435.398 0 9708.2698 0 -19376.432)
(-145642.89 -2465.8102 0 12151.768 0 -24271.114)
(-172366.5 -2489.7387 0 14375.174 0 -28725.696)
(-196468.4 -2507.1222 0 16380.077 0 -32743.331)
(-217967.81 -2517.9205 0 18168.087 0 -36327.222)
(-236882.1 -2522.1151 0 19740.662 0 -39480.261)
(-253224.19 -2519.7031 0 21098.886 0 -42204.6)
(-267001.03 -2510.6901 0 22243.346 0 -44501.398)
(-278218.4 -2495.0973 0 23174.532 0 -46371.613)
(-286987.65 -2472.9839 0 23901.725 0 -47833.805)
(-294376.84 -2444.3209 0 24513.83 0 -49066.002)
(-309353.97 -2407.6725 0 25757.201 0 -51563.05)
(-373565.79 -2348.8371 0 31097.795 0 -62266.907)
(-788039.53 -2201.945 0 65587.92 0 -131354.84)
(-1604368.9 -1466.8926 0 133521.42 0 -267426.81)
)
;
    }
    bottom
    {
        type            calculated;
        value           nonuniform List<symmTensor> 
40
(
(-1188461.2 -105.70482 0 98984.922 0 -198086.6)
(-1372723 -202.59709 0 114325.95 0 -228799.47)
(-1310855.6 -323.33331 0 109168.46 0 -218488.57)
(-1227186.6 -450.10242 0 102196.05 0 -204543.73)
(-1137550.1 -576.64881 0 94727.01 0 -189604.19)
(-1049576.8 -701.80026 0 87396.816 0 -174941.82)
(-964316.39 -825.10508 0 80292.881 0 -160731.55)
(-881940.52 -946.23257 0 73429.501 0 -147002)
(-802456.99 -1064.8661 0 66807.322 0 -133754.49)
(-725858.05 -1180.6947 0 60425.694 0 -120987.7)
(-652134.99 -1293.4143 0 54283.886 0 -108700.2)
(-581278.83 -1402.7286 0 48381.147 0 -96890.489)
(-513280.01 -1508.3505 0 42716.673 0 -85556.971)
(-448128.25 -1610.0026 0 37289.602 0 -74697.936)
(-385812.52 -1707.4177 0 32099.012 0 -64311.547)
(-326321.12 -1800.34 0 27143.918 0 -54395.855)
(-269641.65 -1888.5255 0 22423.282 0 -44948.794)
(-215761.07 -1971.7426 0 17936.01 0 -35968.193)
(-164665.73 -2049.7729 0 13680.957 0 -27451.778)
(-116341.43 -2122.4115 0 9656.9312 0 -19397.182)
(-70773.403 -2189.4679 0 5862.6957 0 -11801.947)
(-27946.423 -2250.7663 0 2296.9728 0 -4663.5365)
(12155.206 -2306.1458 0 -1041.554 0 2020.664)
(49547.586 -2355.4613 0 -4154.235 0 8253.3366)
(84247.212 -2398.5834 0 -7042.4536 0 14037.229)
(116270.92 -2435.399 0 -9707.6221 0 19375.146)
(145635.97 -2465.8114 0 -12151.187 0 24269.961)
(172360.17 -2489.7407 0 -14374.643 0 28724.641)
(196462.19 -2507.1249 0 -16379.557 0 32742.298)
(217961.15 -2517.9227 0 -18167.528 0 36326.112)
(236874.75 -2522.1144 0 -19740.046 0 39479.038)
(253216.8 -2519.6985 0 -21098.267 0 42203.37)
(266994.37 -2510.6846 0 -22242.788 0 44500.288)
(278212.57 -2495.0961 0 -23174.042 0 46370.641)
(286981.74 -2472.9892 0 -23901.229 0 47832.819)
(294369.88 -2444.3288 0 -24513.246 0 49064.842)
(309346.83 -2407.6765 0 -25756.602 0 51561.859)
(373560.78 -2348.8359 0 -31097.375 0 62266.074)
(788037.43 -2201.9445 0 -65587.744 0 131354.49)
(1604367.6 -1466.8983 0 -133521.31 0 267426.59)
)
;
    }
    frontAndBack
    {
        type            empty;
    }
}


// ************************************************************************* //
