/*--------------------------------*- C++ -*----------------------------------*\
| =========                 |                                                 |
| \\      /  F ield         | OpenFOAM: The Open Source CFD Toolbox           |
|  \\    /   O peration     | Version:  2512                                  |
|   \\  /    A nd           | Website:  www.openfoam.com                      |
|    \\/     M anipulation  |                                                 |
\*---------------------------------------------------------------------------*/
FoamFile
{
    version     2.0;
    format      ascii;
    arch        "LSB;label=32;scalar=64";
    class       volScalarField;
    location    "0.3";
    object      p;
}
// * * * * * * * * * * * * * * * * * * * * * * * * * * * * * * * * * * * * * //

dimensions      [0 2 -2 0 0 0 0];

internalField   nonuniform List<scalar> 
400
(
1.31128e-07
-0.00505465
-0.0114338
-0.0162726
-0.0179008
-0.0156098
-0.00933775
0.000516311
0.0132193
0.0277991
0.0431209
0.0579604
0.0710892
0.0813811
0.0879453
0.0902842
0.0884678
0.0833286
0.076724
0.0716168
0.00497256
-0.000224261
-0.00590361
-0.00980342
-0.0108891
-0.00868593
-0.00315234
0.00538921
0.016336
0.0288776
0.0420584
0.0548415
0.0661851
0.0751369
0.0809477
0.0832017
0.0819443
0.0777637
0.0718758
0.066631
0.0116695
0.00515844
-0.000953698
-0.00460437
-0.00548208
-0.003438
0.00148541
0.00899189
0.0185682
0.0295316
0.0410725
0.0523041
0.0623251
0.0702996
0.0755531
0.0776797
0.0766283
0.0726598
0.0662878
0.0596877
0.0175733
0.00903513
0.00154593
-0.00259514
-0.00364392
-0.00176406
0.00287959
0.00995845
0.0189832
0.0293299
0.0402626
0.0509649
0.0605883
0.0683176
0.0734551
0.0755182
0.0743048
0.0697651
0.0618886
0.0531554
0.0210015
0.0102279
0.00103161
-0.00387171
-0.00518198
-0.00333819
0.00136561
0.0085415
0.017687
0.0281944
0.0393539
0.050367
0.0603792
0.0685322
0.0740396
0.0762848
0.0748827
0.0694962
0.0597184
0.0485586
0.0207388
0.00769178
-0.00326512
-0.00892846
-0.0103809
-0.00831393
-0.00315121
0.00464719
0.0145459
0.025929
0.0380848
0.0502003
0.0613762
0.0706661
0.0771449
0.0800126
0.0786647
0.0724708
0.0606769
0.0469427
0.0156944
0.000371194
-0.0122854
-0.0185438
-0.0198615
-0.017185
-0.0110751
-0.00207323
0.00924201
0.0222353
0.0361802
0.0502321
0.0634234
0.0746857
0.0829096
0.0870568
0.0862468
0.0795063
0.0657095
0.0492646
0.00471657
-0.0128774
-0.0270893
-0.0336306
-0.034378
-0.030568
-0.0229177
-0.0120595
0.00138244
0.016756
0.0333236
0.0502104
0.0663736
0.0806011
0.0915574
0.0979013
0.0983903
0.0916021
0.0759353
0.0566381
-0.0135481
-0.033388
-0.0489042
-0.0552343
-0.0547805
-0.049143
-0.0392309
-0.0257779
-0.00944652
0.0091127
0.0291754
0.0498606
0.0700656
0.0884321
0.103365
0.113146
0.116051
0.110033
0.0928096
0.0705484
-0.0408021
-0.0628018
-0.0791935
-0.084547
-0.0819837
-0.0735928
-0.0605294
-0.0436379
-0.0235995
-0.00102428
0.0234268
0.0489198
0.0743402
0.0982096
0.118661
0.133525
0.14044
0.136471
0.118315
0.0930922
-0.0793002
-0.103219
-0.119729
-0.122898
-0.116892
-0.104486
-0.0871538
-0.0658506
-0.041237
-0.0138164
0.0158962
0.0472059
0.0790768
0.109984
0.137818
0.159909
0.173076
0.173128
0.155202
0.1273
-0.132192
-0.157432
-0.172679
-0.171703
-0.160261
-0.142091
-0.119063
-0.0922215
-0.0621311
-0.0290843
0.00667279
0.0447224
0.0842556
0.123845
0.161244
0.193293
0.215827
0.222919
0.207328
0.177623
-0.204173
-0.22931
-0.240695
-0.232341
-0.212449
-0.186079
-0.15554
-0.121877
-0.0854218
-0.0460985
-0.00371296
0.0417844
0.0900279
0.139926
0.189325
0.234722
0.270895
0.28964
0.280159
0.25077
-0.302838
-0.324486
-0.326985
-0.305868
-0.273006
-0.235111
-0.194822
-0.152959
-0.109374
-0.0633908
-0.0141505
0.0391052
0.0967386
0.158345
0.222274
0.28508
0.340668
0.378129
0.381581
0.357289
-0.441208
-0.451394
-0.435257
-0.392487
-0.340051
-0.286296
-0.23371
-0.182375
-0.131243
-0.0787054
-0.0229592
0.0377356
0.104805
0.178997
0.259809
0.344655
0.427314
0.494262
0.522949
0.514239
-0.640482
-0.621974
-0.56913
-0.490576
-0.409426
-0.334651
-0.267329
-0.205808
-0.147453
-0.089272
-0.0282161
0.0387041
0.114317
0.201068
0.30051
0.412302
0.531814
0.6442
0.719331
0.747381
-0.934553
-0.851874
-0.728995
-0.593582
-0.47269
-0.372118
-0.288902
-0.21798
-0.154146
-0.0925233
-0.0285698
0.0421135
0.123997
0.221747
0.34008
0.482923
0.650467
0.830897
0.989275
1.09497
-1.42357
-1.16956
-0.901328
-0.679769
-0.510906
-0.384402
-0.288486
-0.212504
-0.14769
-0.0870047
-0.0244806
0.0455126
0.12898
0.233019
0.36647
0.539913
0.763796
1.04367
1.36675
1.6666
-2.48525
-1.63822
-1.04377
-0.703164
-0.491568
-0.350752
-0.253892
-0.183068
-0.125746
-0.0732377
-0.0188949
0.0433349
0.120184
0.220514
0.357301
0.54967
0.826016
1.24318
1.92212
2.85196
-4.49085
-2.26487
-1.15019
-0.679176
-0.434205
-0.289549
-0.201044
-0.142473
-0.0978295
-0.0575351
-0.0150276
0.0354339
0.100413
0.189495
0.318995
0.517679
0.837483
1.41016
2.63838
4.96004
)
;

boundaryField
{
    movingWall
    {
        type            zeroGradient;
    }
    fixedWalls
    {
        type            zeroGradient;
    }
    frontAndBack
    {
        type            empty;
    }
}


// ************************************************************************* //
