/*--------------------------------*- C++ -*----------------------------------*\
| =========                 |                                                 |
| \\      /  F ield         | OpenFOAM: The Open Source CFD Toolbox           |
|  \\    /   O peration     | Version:  2512                                  |
|   \\  /    A nd           | Website:  www.openfoam.com                      |
|    \\/     M anipulation  |                                                 |
\*---------------------------------------------------------------------------*/
FoamFile
{
    version     2.0;
    format      ascii;
    arch        "LSB;label=32;scalar=64";
    class       surfaceScalarField;
    location    "0.3";
    object      phi;
}
// * * * * * * * * * * * * * * * * * * * * * * * * * * * * * * * * * * * * * //

dimensions      [0 3 -1 0 0 0 0];

oriented        oriented;

internalField   nonuniform List<scalar> 
760
(
6.91355e-09
-6.91465e-09
-3.20125e-08
3.89263e-08
-1.2267e-07
9.06587e-08
-2.50674e-07
1.28004e-07
-3.97403e-07
1.4673e-07
-5.44886e-07
1.47484e-07
-6.77482e-07
1.32597e-07
-7.82532e-07
1.0505e-07
-8.5059e-07
6.80583e-08
-8.75546e-07
2.49568e-08
-8.54797e-07
-2.07494e-08
-7.89491e-07
-6.53066e-08
-6.84808e-07
-1.04684e-07
-5.50152e-07
-1.34657e-07
-3.99088e-07
-1.51065e-07
-2.48802e-07
-1.50287e-07
-1.18821e-07
-1.29982e-07
-2.8519e-08
-9.03027e-08
8.44261e-09
-3.6962e-08
8.44256e-09
-3.7685e-08
3.07705e-08
-1.84505e-07
1.85747e-07
-4.37542e-07
3.43696e-07
-7.66788e-07
4.5725e-07
-1.1329e-06
5.12837e-07
-1.49607e-06
5.10657e-07
-1.82046e-06
4.5699e-07
-2.07639e-06
3.60981e-07
-2.24147e-06
2.33135e-07
-2.30126e-06
8.47442e-08
-2.24982e-06
-7.21866e-08
-2.09027e-06
-2.2486e-07
-1.83521e-06
-3.59739e-07
-1.50692e-06
-4.6295e-07
-1.13677e-06
-5.21218e-07
-7.63558e-07
-5.23497e-07
-4.3012e-07
-4.63421e-07
-1.77421e-07
-3.43002e-07
-3.44338e-08
-1.7995e-07
-2.5991e-08
-9.31107e-08
1.23881e-07
-3.58107e-07
4.50743e-07
-7.65382e-07
7.50971e-07
-1.26873e-06
9.60597e-07
-1.81409e-06
1.0582e-06
-2.34745e-06
1.04401e-06
-2.81993e-06
9.29469e-07
-3.19082e-06
7.31874e-07
-3.42931e-06
4.71625e-07
-3.51553e-06
1.70964e-07
-3.44137e-06
-1.46348e-07
-3.21118e-06
-4.5505e-07
-2.84232e-06
-7.28599e-07
-2.36524e-06
-9.40029e-07
-1.82266e-06
-1.0638e-06
-1.26725e-06
-1.07891e-06
-7.57178e-07
-9.73488e-07
-3.49149e-07
-7.5103e-07
-8.86204e-08
-4.40478e-07
-1.14611e-07
-1.45198e-07
2.69079e-07
-5.25443e-07
8.30989e-07
-1.08115e-06
1.30668e-06
-1.7462e-06
1.62565e-06
-2.45199e-06
1.76398e-06
-3.13298e-06
1.725e-06
-3.73101e-06
1.52751e-06
-4.19811e-06
1.19897e-06
-4.49808e-06
7.71588e-07
-4.60753e-06
2.8042e-07
-4.51676e-06
-2.37122e-07
-4.23046e-06
-7.41347e-07
-3.76848e-06
-1.19058e-06
-3.16608e-06
-1.54243e-06
-2.47337e-06
-1.75651e-06
-1.75315e-06
-1.79913e-06
-1.07663e-06
-1.65001e-06
-5.16764e-07
-1.3109e-06
-1.39994e-07
-8.17248e-07
-2.54604e-07
-1.9343e-07
4.62509e-07
-6.84394e-07
1.32195e-06
-1.38401e-06
2.0063e-06
-2.20421e-06
2.44584e-06
-3.06087e-06
2.62064e-06
-3.87774e-06
2.54187e-06
-4.58938e-06
2.23914e-06
-5.14287e-06
1.75246e-06
-5.4987e-06
1.12742e-06
-5.63131e-06
4.13025e-07
-5.52956e-06
-3.38868e-07
-5.19759e-06
-1.07332e-06
-4.65574e-06
-1.73243e-06
-3.94151e-06
-2.25666e-06
-3.10979e-06
-2.58822e-06
-2.23174e-06
-2.67718e-06
-1.39146e-06
-2.49029e-06
-6.80189e-07
-2.02217e-06
-1.88639e-07
-1.3088e-06
-4.43241e-07
-2.39952e-07
7.0246e-07
-8.39412e-07
1.92141e-06
-1.6805e-06
2.84739e-06
-2.65194e-06
3.41728e-06
-3.65336e-06
3.62207e-06
-4.59828e-06
3.48679e-06
-5.41542e-06
3.05629e-06
-6.04889e-06
2.38593e-06
-6.45762e-06
1.53615e-06
-6.61491e-06
5.70308e-07
-6.50832e-06
-4.45456e-07
-6.14041e-06
-1.44123e-06
-5.53012e-06
-2.34272e-06
-4.7147e-06
-3.07208e-06
-3.75148e-06
-3.55144e-06
-2.71851e-06
-3.71015e-06
-1.71304e-06
-3.49577e-06
-8.46744e-07
-2.88846e-06
-2.37668e-07
-1.91787e-06
-6.80908e-07
-2.87136e-07
9.89596e-07
-9.95908e-07
2.63018e-06
-1.97789e-06
3.82937e-06
-3.09718e-06
4.53657e-06
-4.23678e-06
4.76167e-06
-5.3009e-06
4.5509e-06
-6.21434e-06
3.96973e-06
-6.92047e-06
3.09206e-06
-7.3787e-06
1.99439e-06
-7.56247e-06
7.54077e-07
-7.45825e-06
-5.4968e-07
-7.06597e-06
-1.83351e-06
-6.40102e-06
-3.00767e-06
-5.49747e-06
-3.97562e-06
-4.41205e-06
-4.63687e-06
-3.22752e-06
-4.89468e-06
-2.05386e-06
-4.66943e-06
-1.02512e-06
-3.9172e-06
-2.90621e-07
-2.65237e-06
-9.71527e-07
-3.37213e-07
1.32681e-06
-1.15883e-06
3.4518e-06
-2.28188e-06
4.95242e-06
-3.54367e-06
5.79837e-06
-4.81064e-06
6.02864e-06
-5.97956e-06
5.71982e-06
-6.97432e-06
4.96449e-06
-7.74081e-06
3.85855e-06
-8.24174e-06
2.49532e-06
-8.45256e-06
9.649e-07
-8.35917e-06
-6.43075e-07
-7.95789e-06
-2.23479e-06
-7.25798e-06
-3.70758e-06
-6.28652e-06
-4.94709e-06
-5.0952e-06
-5.82819e-06
-3.76758e-06
-6.22229e-06
-2.42443e-06
-6.01259e-06
-1.22361e-06
-5.11802e-06
-3.51012e-07
-3.52497e-06
-1.32254e-06
-3.92454e-07
1.71926e-06
-1.33261e-06
4.39196e-06
-2.59587e-06
6.21568e-06
-3.98962e-06
7.19212e-06
-5.36448e-06
7.4035e-06
-6.61328e-06
6.96861e-06
-7.66369e-06
6.01491e-06
-8.46896e-06
4.66381e-06
-8.99914e-06
3.0255e-06
-9.23445e-06
1.20021e-06
-9.16132e-06
-7.16203e-07
-8.77165e-06
-2.62446e-06
-8.06565e-06
-4.41359e-06
-7.05844e-06
-5.95429e-06
-5.79028e-06
-7.09635e-06
-4.33896e-06
-7.67361e-06
-2.83145e-06
-7.52009e-06
-1.44955e-06
-6.49992e-06
-4.22401e-07
-4.55211e-06
-1.74494e-06
-4.55688e-07
2.17495e-06
-1.52185e-06
5.45811e-06
-2.921e-06
7.61483e-06
-4.42655e-06
8.69767e-06
-5.87553e-06
8.85248e-06
-7.16276e-06
8.25584e-06
-8.22692e-06
7.07906e-06
-9.03535e-06
5.47225e-06
-9.57103e-06
3.56118e-06
-9.82279e-06
1.45197e-06
-9.77946e-06
-7.59529e-07
-9.42814e-06
-2.97578e-06
-8.75694e-06
-5.08479e-06
-7.76308e-06
-6.94815e-06
-6.46665e-06
-8.39278e-06
-4.92948e-06
-9.21078e-06
-3.27605e-06
-9.17352e-06
-1.70918e-06
-8.06679e-06
-5.08732e-07
-5.75256e-06
-2.25367e-06
-5.31198e-07
2.70615e-06
-1.73238e-06
6.65929e-06
-3.25606e-06
9.13852e-06
-4.83731e-06
1.02789e-05
-6.30487e-06
1.032e-05
-7.56538e-06
9.51634e-06
-8.5789e-06
8.09258e-06
-9.33597e-06
6.22932e-06
-9.83937e-06
4.06458e-06
-1.00914e-05
1.70396e-06
-1.00859e-05
-7.64953e-07
-9.80577e-06
-3.25595e-06
-9.22437e-06
-5.6662e-06
-8.31463e-06
-7.85788e-06
-7.06568e-06
-9.64174e-06
-5.50883e-06
-1.07676e-05
-3.75104e-06
-1.09313e-05
-2.00746e-06
-9.81037e-06
-6.14917e-07
-7.14511e-06
-2.86859e-06
-6.2608e-07
3.33223e-06
-1.97243e-06
8.00565e-06
-3.59621e-06
1.07623e-05
-5.19156e-06
1.18743e-05
-6.59043e-06
1.17189e-05
-7.72694e-06
1.06529e-05
-8.59692e-06
8.96256e-06
-9.22497e-06
6.85738e-06
-9.64132e-06
4.48093e-06
-9.86676e-06
1.92941e-06
-9.90376e-06
-7.27952e-07
-9.73216e-06
-3.42754e-06
-9.30983e-06
-6.08853e-06
-8.58004e-06
-8.58768e-06
-7.48922e-06
-1.07326e-05
-6.01921e-06
-1.22376e-05
-4.23578e-06
-1.27147e-05
-2.34709e-06
-1.16991e-05
-7.47668e-07
-8.74453e-06
-3.61625e-06
-7.52184e-07
4.08442e-06
-2.2528e-06
9.50627e-06
-3.92773e-06
1.24372e-05
-5.43521e-06
1.33817e-05
-6.63341e-06
1.29171e-05
-7.5081e-06
1.15275e-05
-8.1089e-06
9.56337e-06
-8.50582e-06
7.2543e-06
-8.76291e-06
4.73801e-06
-8.92343e-06
2.08992e-06
-9.00144e-06
-6.49938e-07
-8.97694e-06
-3.45204e-06
-8.79406e-06
-6.27141e-06
-8.36468e-06
-9.01706e-06
-7.58302e-06
-1.15142e-05
-6.35995e-06
-1.34607e-05
-4.68608e-06
-1.43886e-05
-2.72561e-06
-1.36595e-05
-9.16557e-07
-1.05536e-05
-4.53281e-06
-9.28332e-07
5.01275e-06
-2.58271e-06
1.11606e-05
-4.21297e-06
1.40675e-05
-5.46697e-06
1.46357e-05
-6.27259e-06
1.37227e-05
-6.70152e-06
1.19565e-05
-6.87664e-06
9.73849e-06
-6.92115e-06
7.29881e-06
-6.9346e-06
4.75146e-06
-6.98274e-06
2.13805e-06
-7.09267e-06
-5.40009e-07
-7.24875e-06
-3.29595e-06
-7.38781e-06
-6.13235e-06
-7.39585e-06
-9.00902e-06
-7.11319e-06
-1.17969e-05
-6.36151e-06
-1.42124e-05
-5.01355e-06
-1.57366e-05
-3.12659e-06
-1.55465e-05
-1.1346e-06
-1.25456e-05
-5.66741e-06
-1.17901e-06
6.19177e-06
-2.95127e-06
1.29329e-05
-4.35124e-06
1.54675e-05
-5.08925e-06
1.53737e-05
-5.23773e-06
1.38712e-05
-4.99607e-06
1.17148e-05
-4.5734e-06
9.31581e-06
-4.1431e-06
6.86851e-06
-3.83159e-06
4.43995e-06
-3.71962e-06
2.02609e-06
-3.84494e-06
-4.14684e-07
-4.20091e-06
-2.93999e-06
-4.72903e-06
-5.60422e-06
-5.30646e-06
-8.43159e-06
-5.73417e-06
-1.13692e-05
-5.74198e-06
-1.42046e-05
-5.04331e-06
-1.64352e-05
-3.49415e-06
-1.70956e-05
-1.4135e-06
-1.46262e-05
-7.08091e-06
-1.51502e-06
7.70679e-06
-3.26816e-06
1.4686e-05
-4.08646e-06
1.62858e-05
-3.91128e-06
1.51986e-05
-3.07134e-06
1.30313e-05
-1.92592e-06
1.05694e-05
-7.59273e-07
8.14916e-06
2.306e-07
5.87864e-06
9.15494e-07
3.75506e-06
1.21769e-06
1.72389e-06
1.09707e-06
-2.94064e-07
5.47926e-07
-2.39084e-06
-3.92742e-07
-4.66355e-06
-1.624e-06
-7.20033e-06
-2.948e-06
-1.00452e-05
-4.03597e-06
-1.31166e-05
-4.42915e-06
-1.6042e-05
-3.66704e-06
-1.78578e-05
-1.73818e-06
-1.65551e-05
-8.8191e-06
-1.88263e-06
9.58942e-06
-3.2143e-06
1.60177e-05
-2.80493e-06
1.58764e-05
-1.17283e-06
1.35664e-05
9.8702e-07
1.08714e-05
3.18649e-06
8.36992e-06
5.13247e-06
6.20319e-06
6.66229e-06
4.34882e-06
7.68965e-06
2.7277e-06
8.16761e-06
1.24592e-06
8.06749e-06
-1.9394e-07
7.37125e-06
-1.69461e-06
6.07748e-06
-3.36979e-06
4.22486e-06
-5.3477e-06
1.93998e-06
-7.76028e-06
-4.84683e-07
-1.0692e-05
-2.49362e-06
-1.40331e-05
-3.23827e-06
-1.71131e-05
-2.01112e-06
-1.77822e-05
-1.08302e-05
-2.09777e-06
1.16872e-05
-1.84615e-06
1.57661e-05
8.93817e-07
1.31364e-05
4.53487e-06
9.92539e-06
8.12494e-06
7.28136e-06
1.1251e-05
5.24385e-06
1.37601e-05
3.69414e-06
1.56145e-05
2.49441e-06
1.68195e-05
1.52271e-06
1.73852e-05
6.80139e-07
1.73082e-05
-1.16944e-07
1.65631e-05
-9.49456e-07
1.5103e-05
-1.90969e-06
1.28726e-05
-3.11732e-06
9.8465e-06
-4.73416e-06
6.11776e-06
-6.96322e-06
2.08279e-06
-9.99814e-06
-1.22306e-06
-1.38073e-05
-1.98282e-06
-1.70225e-05
-1.2813e-05
-8.81139e-07
1.25683e-05
3.89192e-06
1.0993e-05
1.00859e-05
6.94246e-06
1.55687e-05
4.44258e-06
1.99407e-05
2.90935e-06
2.32678e-05
1.91678e-06
2.57033e-05
1.25865e-06
2.73929e-05
8.04817e-07
2.8446e-05
4.69572e-07
2.89289e-05
1.97199e-07
2.88641e-05
-5.21059e-08
2.82279e-05
-3.13286e-07
2.69456e-05
-6.27332e-07
2.48822e-05
-1.05392e-06
2.18388e-05
-1.69083e-06
1.75752e-05
-2.69958e-06
1.19225e-05
-4.34548e-06
5.22185e-06
-7.10656e-06
-3.08803e-07
-1.14918e-05
-1.31218e-05
1.25683e-05
2.35614e-05
3.05038e-05
3.49464e-05
3.78558e-05
3.97725e-05
4.10312e-05
4.1836e-05
4.23056e-05
4.25028e-05
4.24507e-05
4.21374e-05
4.15101e-05
4.04561e-05
3.87653e-05
3.60657e-05
3.17202e-05
2.46137e-05
1.31218e-05
)
;

boundaryField
{
    movingWall
    {
        type            calculated;
        value           uniform 0;
    }
    fixedWalls
    {
        type            calculated;
        value           uniform 0;
    }
    frontAndBack
    {
        type            empty;
    }
}


// ************************************************************************* //
