/*--------------------------------*- C++ -*----------------------------------*\
| =========                 |                                                 |
| \\      /  F ield         | OpenFOAM: The Open Source CFD Toolbox           |
|  \\    /   O peration     | Version:  2512                                  |
|   \\  /    A nd           | Website:  www.openfoam.com                      |
|    \\/     M anipulation  |                                                 |
\*---------------------------------------------------------------------------*/
FoamFile
{
    version     2.0;
    format      ascii;
    arch        "LSB;label=32;scalar=64";
    class       volVectorField;
    location    "0.3";
    object      U;
}
// * * * * * * * * * * * * * * * * * * * * * * * * * * * * * * * * * * * * * //

dimensions      [0 1 -1 0 0 0 0];

internalField   nonuniform List<vector> 
400
(
(0.000188246 -0.000188705 0)
(-5.17202e-05 2.18665e-05 0)
(-0.00137045 0.000280001 0)
(-0.00361974 0.000458343 0)
(-0.00644262 0.00054728 0)
(-0.00945661 0.000558261 0)
(-0.0123189 0.000505349 0)
(-0.0147438 0.000402642 0)
(-0.0165089 0.000263396 0)
(-0.0174579 0.000100267 0)
(-0.0175027 -7.3847e-05 0)
(-0.0166277 -0.000244919 0)
(-0.0148956 -0.000397237 0)
(-0.0124522 -0.000513381 0)
(-0.00952901 -0.000574943 0)
(-0.006438 -0.000564234 0)
(-0.0035557 -0.000466931 0)
(-0.00128983 -0.000275717 0)
(2.80578e-06 -8.75154e-06 0)
(0.00019973 0.000199375 0)
(-3.06502e-06 3.06619e-05 0)
(-0.00173337 0.0017422 0)
(-0.00578788 0.0036588 0)
(-0.0117784 0.00506386 0)
(-0.0189228 0.00577173 0)
(-0.0263956 0.00579089 0)
(-0.033427 0.00520343 0)
(-0.0393539 0.00412148 0)
(-0.0436512 0.00266935 0)
(-0.0459479 0.000978051 0)
(-0.0460377 -0.000814135 0)
(-0.0438901 -0.0025594 0)
(-0.0396611 -0.00410001 0)
(-0.0337006 -0.00527223 0)
(-0.0265503 -0.00591681 0)
(-0.0189233 -0.00589798 0)
(-0.0116558 -0.00513335 0)
(-0.00562497 -0.00364333 0)
(-0.00161839 -0.00166621 0)
(1.95872e-05 2.93404e-05 0)
(-0.000257865 0.00132479 0)
(-0.00381673 0.00581605 0)
(-0.0106363 0.0102058 0)
(-0.0199984 0.013346 0)
(-0.03076 0.0148644 0)
(-0.041801 0.0147539 0)
(-0.0520785 0.0131821 0)
(-0.0606866 0.0104031 0)
(-0.0669036 0.00671431 0)
(-0.0702183 0.00243863 0)
(-0.0703475 -0.00207954 0)
(-0.0672509 -0.00647351 0)
(-0.061144 -0.0103569 0)
(-0.0525066 -0.0133362 0)
(-0.0420777 -0.0150377 0)
(-0.0308256 -0.0151543 0)
(-0.0198805 -0.0135149 0)
(-0.0104387 -0.0101859 0)
(-0.0036631 -0.00565207 0)
(-0.000225763 -0.00118608 0)
(-0.00047699 0.00371444 0)
(-0.00582276 0.0122873 0)
(-0.0153385 0.0198683 0)
(-0.0278916 0.0250838 0)
(-0.0419464 0.0274515 0)
(-0.0561229 0.0269863 0)
(-0.0691756 0.0239757 0)
(-0.0800344 0.0188561 0)
(-0.0878512 0.0121441 0)
(-0.0920259 0.00440481 0)
(-0.0922244 -0.00375721 0)
(-0.088393 -0.0116999 0)
(-0.0807746 -0.0187498 0)
(-0.0699209 -0.0242238 0)
(-0.0566921 -0.0274758 0)
(-0.0422301 -0.0279752 0)
(-0.0278928 -0.0254189 0)
(-0.0151718 -0.0198814 0)
(-0.00565365 -0.012032 0)
(-0.000435795 -0.00347445 0)
(-0.000667012 0.00710945 0)
(-0.00770652 0.0210176 0)
(-0.0198388 0.0324469 0)
(-0.035478 0.039973 0)
(-0.052663 0.0431257 0)
(-0.0697534 0.0420233 0)
(-0.0853321 0.0371305 0)
(-0.0982118 0.0291087 0)
(-0.107465 0.0187278 0)
(-0.112439 0.00682426 0)
(-0.112764 -0.00571133 0)
(-0.108365 -0.0179346 0)
(-0.0994844 -0.0288534 0)
(-0.0866959 -0.037456 0)
(-0.0709258 -0.0427743 0)
(-0.0534418 -0.0439922 0)
(-0.0358067 -0.0406004 0)
(-0.0198261 -0.0325932 0)
(-0.00756935 -0.0207141 0)
(-0.000619711 -0.00676194 0)
(-0.0008459 0.0114454 0)
(-0.00953388 0.0319265 0)
(-0.0242427 0.0478639 0)
(-0.0429096 0.0579094 0)
(-0.0631246 0.0617389 0)
(-0.0829833 0.0596824 0)
(-0.100919 0.0524605 0)
(-0.115665 0.0410115 0)
(-0.126253 0.026389 0)
(-0.132008 0.00971538 0)
(-0.132538 -0.00782621 0)
(-0.127739 -0.0249838 0)
(-0.117818 -0.0404342 0)
(-0.103329 -0.0528082 0)
(-0.0852094 -0.0607631 0)
(-0.0648119 -0.0631174 0)
(-0.043889 -0.0590486 0)
(-0.0245853 -0.0483446 0)
(-0.00951301 -0.0316969 0)
(-0.000800359 -0.0110155 0)
(-0.00102936 0.0167106 0)
(-0.0113871 0.0450015 0)
(-0.0286822 0.0660979 0)
(-0.0503423 0.0788388 0)
(-0.0734857 0.0831909 0)
(-0.0959506 0.0798276 0)
(-0.116051 0.0698231 0)
(-0.132486 0.0544531 0)
(-0.144293 0.0350818 0)
(-0.15081 0.0131193 0)
(-0.151637 -0.00997224 0)
(-0.146633 -0.0326498 0)
(-0.135939 -0.0532655 0)
(-0.120032 -0.0700755 0)
(-0.0998017 -0.0813086 0)
(-0.0766252 -0.0853189 0)
(-0.0524149 -0.0808296 0)
(-0.0296691 -0.0672563 0)
(-0.011611 -0.045088 0)
(-0.000999539 -0.0162765 0)
(-0.00123184 0.0229409 0)
(-0.0133454 0.0602892 0)
(-0.0332756 0.0871536 0)
(-0.0578822 0.102689 0)
(-0.0837874 0.107329 0)
(-0.108593 0.102251 0)
(-0.130549 0.0890007 0)
(-0.148384 0.0692583 0)
(-0.161207 0.0447196 0)
(-0.168416 0.0170675 0)
(-0.169632 -0.0119937 0)
(-0.16467 -0.0406734 0)
(-0.15357 -0.0670314 0)
(-0.136666 -0.0889507 0)
(-0.114711 -0.104183 0)
(-0.0890192 -0.110506 0)
(-0.0615953 -0.106007 0)
(-0.0352818 -0.0895112 0)
(-0.0139903 -0.0610978 0)
(-0.00123895 -0.0226589 0)
(-0.00146906 0.0302165 0)
(-0.0154881 0.0778853 0)
(-0.03812 0.111035 0)
(-0.0655647 0.12932 0)
(-0.0939203 0.133874 0)
(-0.120602 0.126585 0)
(-0.143883 0.109611 0)
(-0.162623 0.0851092 0)
(-0.176094 0.0551155 0)
(-0.183826 0.0215491 0)
(-0.185497 -0.01371 0)
(-0.180887 -0.0487017 0)
(-0.169894 -0.0812621 0)
(-0.152632 -0.108935 0)
(-0.129598 -0.128965 0)
(-0.101905 -0.138432 0)
(-0.0715253 -0.134572 0)
(-0.0415902 -0.115314 0)
(-0.0167767 -0.0800247 0)
(-0.00154273 -0.0303475 0)
(-0.00176262 0.0386667 0)
(-0.0179109 0.0979242 0)
(-0.0433021 0.137703 0)
(-0.0733429 0.158448 0)
(-0.103589 0.162323 0)
(-0.131361 0.152196 0)
(-0.155097 0.131006 0)
(-0.173937 0.101457 0)
(-0.187439 0.0659147 0)
(-0.195361 0.0264694 0)
(-0.197499 -0.0149268 0)
(-0.19361 -0.0562651 0)
(-0.183423 -0.095274 0)
(-0.166738 -0.12924 0)
(-0.14365 -0.154913 0)
(-0.114869 -0.168567 0)
(-0.0821273 -0.166327 0)
(-0.0487085 -0.144821 0)
(-0.0201035 -0.102232 0)
(-0.00194183 -0.0396015 0)
(-0.00214788 0.0484888 0)
(-0.0207529 0.120575 0)
(-0.0489127 0.167025 0)
(-0.0810694 0.189547 0)
(-0.11225 0.191824 0)
(-0.139853 0.178055 0)
(-0.162702 0.152153 0)
(-0.180413 0.117421 0)
(-0.192995 0.0765184 0)
(-0.200548 0.031598 0)
(-0.203063 -0.0154599 0)
(-0.20031 -0.0627662 0)
(-0.191826 -0.108116 0)
(-0.177017 -0.148691 0)
(-0.155402 -0.180824 0)
(-0.127027 -0.199926 0)
(-0.0930643 -0.200731 0)
(-0.0566736 -0.178033 0)
(-0.0241245 -0.128112 0)
(-0.00248114 -0.0507678 0)
(-0.00268725 0.0599919 0)
(-0.0242339 0.146039 0)
(-0.0550526 0.198681 0)
(-0.0884359 0.221695 0)
(-0.118993 0.221001 0)
(-0.144508 0.202579 0)
(-0.164505 0.171505 0)
(-0.179337 0.131697 0)
(-0.189644 0.0860113 0)
(-0.195993 0.0365149 0)
(-0.198651 -0.0151714 0)
(-0.197449 -0.0674913 0)
(-0.191748 -0.118541 0)
(-0.180504 -0.165632 0)
(-0.1625 -0.20487 0)
(-0.136809 -0.230844 0)
(-0.103589 -0.236659 0)
(-0.0653901 -0.21462 0)
(-0.0290287 -0.158034 0)
(-0.00323144 -0.0643109 0)
(-0.00349425 0.073677 0)
(-0.0286973 0.174539 0)
(-0.0617888 0.232011 0)
(-0.0948082 0.253341 0)
(-0.122284 0.247728 0)
(-0.142908 0.223452 0)
(-0.15735 0.186887 0)
(-0.166986 0.142482 0)
(-0.173252 0.0931173 0)
(-0.177276 0.0405696 0)
(-0.179664 -0.0140161 0)
(-0.180371 -0.0696549 0)
(-0.178638 -0.125022 0)
(-0.172989 -0.177882 0)
(-0.161379 -0.224446 0)
(-0.141616 -0.258717 0)
(-0.11227 -0.272079 0)
(-0.0744988 -0.253645 0)
(-0.0350453 -0.19224 0)
(-0.00431099 -0.0808665 0)
(-0.00477059 0.0903504 0)
(-0.0346251 0.206238 0)
(-0.0689625 0.26571 0)
(-0.098815 0.281941 0)
(-0.119444 0.26884 0)
(-0.131294 0.237469 0)
(-0.136715 0.195448 0)
(-0.138359 0.147497 0)
(-0.138529 0.0962317 0)
(-0.138909 0.0428863 0)
(-0.140448 -0.0120864 0)
(-0.143281 -0.0684922 0)
(-0.146643 -0.125861 0)
(-0.148766 -0.182794 0)
(-0.146853 -0.236104 0)
(-0.137294 -0.27973 0)
(-0.116485 -0.303601 0)
(-0.083065 -0.293103 0)
(-0.0423901 -0.230613 0)
(-0.00591548 -0.101298 0)
(-0.00680753 0.111219 0)
(-0.0424839 0.240934 0)
(-0.0755862 0.297215 0)
(-0.0974038 0.303387 0)
(-0.105645 0.27981 0)
(-0.103709 0.240478 0)
(-0.0961289 0.193787 0)
(-0.0868726 0.144186 0)
(-0.0789519 0.0936033 0)
(-0.0744242 0.0424628 0)
(-0.0744693 -0.00963406 0)
(-0.0794176 -0.0634101 0)
(-0.0886654 -0.119439 0)
(-0.100465 -0.177516 0)
(-0.111632 -0.235681 0)
(-0.117346 -0.288695 0)
(-0.111489 -0.325923 0)
(-0.0888354 -0.329142 0)
(-0.0509847 -0.272151 0)
(-0.00829195 -0.126685 0)
(-0.00980357 0.138145 0)
(-0.0519805 0.27736 0)
(-0.0782069 0.321507 0)
(-0.0838085 0.311153 0)
(-0.0720824 0.274511 0)
(-0.0507038 0.227611 0)
(-0.0264363 0.178422 0)
(-0.00409935 0.130225 0)
(0.0131369 0.0837538 0)
(0.0232924 0.0384203 0)
(0.0252285 -0.0070377 0)
(0.0184776 -0.0541959 0)
(0.00328677 -0.10465 0)
(-0.0190934 -0.159572 0)
(-0.0458453 -0.218816 0)
(-0.0717854 -0.279171 0)
(-0.0887262 -0.331255 0)
(-0.0865593 -0.354869 0)
(-0.0595087 -0.314057 0)
(-0.0115062 -0.158463 0)
(-0.0137531 0.175126 0)
(-0.0598602 0.31186 0)
(-0.0669855 0.329078 0)
(-0.0435241 0.295431 0)
(-0.00302684 0.245557 0)
(0.0423225 0.194271 0)
(0.0848209 0.146923 0)
(0.120152 0.104522 0)
(0.146034 0.0662216 0)
(0.161268 0.0304444 0)
(0.165162 -0.0046961 0)
(0.157258 -0.0412847 0)
(0.1373 -0.081588 0)
(0.105505 -0.12794 0)
(0.0632442 -0.182238 0)
(0.014343 -0.244457 0)
(-0.0329953 -0.30921 0)
(-0.0645722 -0.358774 0)
(-0.0630479 -0.350269 0)
(-0.015314 -0.199772 0)
(-0.0187316 0.227246 0)
(-0.0534008 0.332795 0)
(-0.0166635 0.303332 0)
(0.0527922 0.244356 0)
(0.127957 0.18727 0)
(0.196305 0.139229 0)
(0.253069 0.100443 0)
(0.296785 0.0690366 0)
(0.327354 0.0427403 0)
(0.345052 0.0194251 0)
(0.350006 -0.00287786 0)
(0.341948 -0.0261518 0)
(0.320132 -0.0526363 0)
(0.283436 -0.0850698 0)
(0.230808 -0.126776 0)
(0.162399 -0.181123 0)
(0.0819641 -0.249255 0)
(0.00214531 -0.323293 0)
(-0.0469584 -0.365415 0)
(-0.0188861 -0.252835 0)
(-0.00226925 0.258732 0)
(0.0195561 0.298286 0)
(0.136201 0.221743 0)
(0.259451 0.153623 0)
(0.359661 0.105204 0)
(0.436292 0.0716731 0)
(0.4933 0.048317 0)
(0.534048 0.0315392 0)
(0.561124 0.0187621 0)
(0.576301 0.00817429 0)
(0.580479 -0.00160005 0)
(0.573665 -0.0118173 0)
(0.554899 -0.0239265 0)
(0.522113 -0.039952 0)
(0.471979 -0.0629919 0)
(0.399801 -0.0977485 0)
(0.299657 -0.150693 0)
(0.1697 -0.227793 0)
(0.0398518 -0.314423 0)
(0.00400148 -0.275089 0)
(0.268726 0.115948 0)
(0.378786 0.100418 0)
(0.540346 0.0528046 0)
(0.658962 0.0282103 0)
(0.732612 0.0163935 0)
(0.779411 0.00976211 0)
(0.81018 0.00579728 0)
(0.830267 0.00336983 0)
(0.842694 0.00178276 0)
(0.849201 0.000615634 0)
(0.850623 -0.000395263 0)
(0.847075 -0.00146228 0)
(0.837941 -0.00283222 0)
(0.821646 -0.00489814 0)
(0.795161 -0.00835589 0)
(0.752854 -0.014414 0)
(0.68319 -0.0256785 0)
(0.565518 -0.0500543 0)
(0.397183 -0.0996017 0)
(0.275601 -0.118502 0)
)
;

boundaryField
{
    movingWall
    {
        type            fixedValue;
        value           uniform (1 0 0);
    }
    fixedWalls
    {
        type            noSlip;
    }
    frontAndBack
    {
        type            empty;
    }
}


// ************************************************************************* //
