/*--------------------------------*- C++ -*----------------------------------*\
| =========                 |                                                 |
| \\      /  F ield         | OpenFOAM: The Open Source CFD Toolbox           |
|  \\    /   O peration     | Version:  2512                                  |
|   \\  /    A nd           | Website:  www.openfoam.com                      |
|    \\/     M anipulation  |                                                 |
\*---------------------------------------------------------------------------*/
FoamFile
{
    version     2.0;
    format      ascii;
    arch        "LSB;label=32;scalar=64";
    class       volScalarField;
    location    "0.4";
    object      p;
}
// * * * * * * * * * * * * * * * * * * * * * * * * * * * * * * * * * * * * * //

dimensions      [0 2 -2 0 0 0 0];

internalField   nonuniform List<scalar> 
400
(
4.62001e-10
-0.00505545
-0.0114354
-0.016275
-0.0179036
-0.0156128
-0.00934059
0.000513927
0.0132176
0.0277983
0.0431211
0.0579615
0.071091
0.0813834
0.0879477
0.0902863
0.0884693
0.0833293
0.076724
0.0716163
0.00497291
-0.0002245
-0.00590454
-0.00980493
-0.010891
-0.00868802
-0.00315439
0.00538743
0.0163347
0.0288769
0.0420583
0.0548421
0.0661863
0.0751384
0.0809491
0.0832029
0.081945
0.0777637
0.0718752
0.0666299
0.0116707
0.00515892
-0.0009539
-0.00460509
-0.00548316
-0.0034393
0.00148404
0.00899061
0.0185672
0.0295309
0.0410722
0.0523042
0.0623256
0.0703003
0.0755537
0.0776801
0.0766282
0.0726591
0.0662865
0.0596858
0.0175752
0.00903624
0.00154629
-0.00259531
-0.00364446
-0.00176487
0.00287862
0.00995743
0.0189823
0.0293292
0.0402621
0.0509647
0.0605883
0.0683177
0.0734551
0.0755179
0.0743041
0.0697638
0.0618866
0.0531527
0.0210039
0.0102294
0.0010323
-0.00387157
-0.00518224
-0.00333876
0.00136479
0.00854053
0.017686
0.0281935
0.0393531
0.0503665
0.0603788
0.0685318
0.0740391
0.076284
0.0748815
0.0694944
0.0597158
0.0485552
0.0207413
0.00769335
-0.00326437
-0.00892826
-0.0103811
-0.00831451
-0.00315209
0.00464608
0.0145447
0.0259278
0.0380836
0.0501993
0.0613753
0.0706652
0.077144
0.0800114
0.0786631
0.0724687
0.060674
0.0469389
0.0156965
0.000372445
-0.0122849
-0.0185438
-0.0198619
-0.0171858
-0.0110763
-0.00207465
0.0092404
0.0222337
0.0361786
0.0502306
0.063422
0.0746843
0.0829082
0.0870552
0.0862449
0.0795038
0.0657063
0.0492607
0.00471783
-0.0128769
-0.0270893
-0.033631
-0.0343788
-0.0305692
-0.0229193
-0.0120614
0.00138034
0.0167538
0.0333215
0.0502084
0.0663717
0.0805992
0.0915556
0.0978994
0.0983881
0.0915996
0.0759322
0.0566344
-0.0135481
-0.0333884
-0.048905
-0.0552353
-0.0547819
-0.0491447
-0.039233
-0.0257803
-0.00944916
0.00910996
0.0291727
0.049858
0.0700632
0.0884298
0.103363
0.113144
0.116049
0.11003
0.0928067
0.0705452
-0.0408035
-0.0628033
-0.0791951
-0.0845488
-0.0819857
-0.073595
-0.060532
-0.0436408
-0.0236026
-0.00102757
0.0234235
0.0489167
0.0743373
0.0982068
0.118658
0.133522
0.140438
0.136469
0.118312
0.0930895
-0.0793031
-0.103222
-0.119732
-0.1229
-0.116895
-0.104489
-0.0871568
-0.065854
-0.0412406
-0.0138202
0.0158925
0.0472023
0.0790734
0.109981
0.137816
0.159906
0.173074
0.173126
0.1552
0.127298
-0.132196
-0.157436
-0.172682
-0.171706
-0.160264
-0.142094
-0.119066
-0.0922251
-0.062135
-0.0290884
0.00666877
0.0447185
0.0842519
0.123842
0.161241
0.19329
0.215824
0.222917
0.207327
0.177622
-0.204178
-0.229314
-0.240699
-0.232345
-0.212452
-0.186082
-0.155543
-0.121881
-0.0854258
-0.0461027
-0.00371708
0.0417804
0.0900242
0.139923
0.189322
0.234719
0.270893
0.289638
0.280158
0.25077
-0.302844
-0.324491
-0.326989
-0.305871
-0.273009
-0.235114
-0.194825
-0.152962
-0.109377
-0.0633948
-0.0141545
0.0391013
0.096735
0.158342
0.222271
0.285078
0.340666
0.378128
0.38158
0.35729
-0.441213
-0.451398
-0.43526
-0.392489
-0.340054
-0.286298
-0.233713
-0.182378
-0.131247
-0.078709
-0.0229629
0.0377321
0.104802
0.178994
0.259806
0.344653
0.427312
0.494261
0.52295
0.51424
-0.640487
-0.621978
-0.569133
-0.490578
-0.409428
-0.334652
-0.26733
-0.205811
-0.147456
-0.0892751
-0.0282193
0.0387009
0.114314
0.201066
0.300508
0.4123
0.531813
0.6442
0.719331
0.747383
-0.934557
-0.851876
-0.728996
-0.593583
-0.472691
-0.372119
-0.288903
-0.217981
-0.154148
-0.0925258
-0.0285726
0.0421107
0.123994
0.221745
0.340078
0.482921
0.650467
0.830897
0.989276
1.09498
-1.42357
-1.16956
-0.901329
-0.679769
-0.510905
-0.384401
-0.288486
-0.212505
-0.147691
-0.0870067
-0.024483
0.04551
0.128977
0.233017
0.366468
0.539912
0.763795
1.04367
1.36675
1.6666
-2.48525
-1.63822
-1.04377
-0.703162
-0.491566
-0.35075
-0.253891
-0.183067
-0.125746
-0.0732392
-0.0188971
0.0433323
0.120181
0.220511
0.357299
0.549668
0.826015
1.24318
1.92212
2.85197
-4.49085
-2.26487
-1.15018
-0.679174
-0.434202
-0.289547
-0.201042
-0.142472
-0.0978296
-0.0575364
-0.0150298
0.035431
0.10041
0.189491
0.318992
0.517676
0.837481
1.41016
2.63838
4.96004
)
;

boundaryField
{
    movingWall
    {
        type            zeroGradient;
    }
    fixedWalls
    {
        type            zeroGradient;
    }
    frontAndBack
    {
        type            empty;
    }
}


// ************************************************************************* //
