/*--------------------------------*- C++ -*----------------------------------*\
| =========                 |                                                 |
| \\      /  F ield         | OpenFOAM: The Open Source CFD Toolbox           |
|  \\    /   O peration     | Version:  2512                                  |
|   \\  /    A nd           | Website:  www.openfoam.com                      |
|    \\/     M anipulation  |                                                 |
\*---------------------------------------------------------------------------*/
FoamFile
{
    version     2.0;
    format      ascii;
    arch        "LSB;label=32;scalar=64";
    class       surfaceScalarField;
    location    "0.4";
    object      phi;
}
// * * * * * * * * * * * * * * * * * * * * * * * * * * * * * * * * * * * * * //

dimensions      [0 3 -1 0 0 0 0];

oriented        oriented;

internalField   nonuniform List<scalar> 
760
(
6.91529e-09
-6.91534e-09
-3.20145e-08
3.89298e-08
-1.22682e-07
9.06672e-08
-2.50698e-07
1.28016e-07
-3.97442e-07
1.46744e-07
-5.4494e-07
1.47498e-07
-6.7755e-07
1.3261e-07
-7.8261e-07
1.05061e-07
-8.50675e-07
6.80647e-08
-8.75633e-07
2.49588e-08
-8.54881e-07
-2.07522e-08
-7.89568e-07
-6.53139e-08
-6.84873e-07
-1.04695e-07
-5.50203e-07
-1.3467e-07
-3.99123e-07
-1.5108e-07
-2.48823e-07
-1.503e-07
-1.1883e-07
-1.29993e-07
-2.852e-08
-9.03098e-08
8.44406e-09
-3.6964e-08
8.44422e-09
-3.76883e-08
3.07729e-08
-1.84523e-07
1.85765e-07
-4.37586e-07
3.4373e-07
-7.66866e-07
4.57296e-07
-1.13301e-06
5.12889e-07
-1.49622e-06
5.10709e-07
-1.82065e-06
4.57037e-07
-2.07661e-06
3.61017e-07
-2.2417e-06
2.33158e-07
-2.30149e-06
8.47506e-08
-2.25005e-06
-7.21967e-08
-2.09047e-06
-2.24885e-07
-1.83539e-06
-3.59778e-07
-1.50706e-06
-4.62998e-07
-1.13687e-06
-5.21271e-07
-7.63626e-07
-5.23547e-07
-4.30157e-07
-4.63463e-07
-1.77435e-07
-3.43031e-07
-3.44361e-08
-1.79963e-07
-2.59915e-08
-9.31201e-08
1.23893e-07
-3.58143e-07
4.50787e-07
-7.65459e-07
7.51046e-07
-1.26886e-06
9.60693e-07
-1.81427e-06
1.05831e-06
-2.34768e-06
1.04412e-06
-2.82021e-06
9.29563e-07
-3.19114e-06
7.31947e-07
-3.42965e-06
4.71669e-07
-3.51588e-06
1.70976e-07
-3.4417e-06
-1.46369e-07
-3.21149e-06
-4.55102e-07
-2.84259e-06
-7.28678e-07
-2.36546e-06
-9.40126e-07
-1.82283e-06
-1.0639e-06
-1.26736e-06
-1.07902e-06
-7.57243e-07
-9.73578e-07
-3.49179e-07
-7.51096e-07
-8.86276e-08
-4.40514e-07
-1.14619e-07
-1.45212e-07
2.69104e-07
-5.25493e-07
8.31069e-07
-1.08125e-06
1.30681e-06
-1.74637e-06
1.62581e-06
-2.45222e-06
1.76416e-06
-3.13327e-06
1.72517e-06
-3.73136e-06
1.52766e-06
-4.19851e-06
1.19909e-06
-4.49849e-06
7.71658e-07
-4.60796e-06
2.80439e-07
-4.51717e-06
-2.37156e-07
-4.23084e-06
-7.4143e-07
-3.76881e-06
-1.19071e-06
-3.16635e-06
-1.54258e-06
-2.47358e-06
-1.75668e-06
-1.7533e-06
-1.7993e-06
-1.07672e-06
-1.65016e-06
-5.16806e-07
-1.31101e-06
-1.40005e-07
-8.17315e-07
-2.54623e-07
-1.93447e-07
4.62551e-07
-6.84453e-07
1.32207e-06
-1.38413e-06
2.00649e-06
-2.2044e-06
2.44607e-06
-3.06113e-06
2.62089e-06
-3.87807e-06
2.54211e-06
-4.58976e-06
2.23935e-06
-5.1433e-06
1.75262e-06
-5.49916e-06
1.12752e-06
-5.63177e-06
4.1305e-07
-5.53001e-06
-3.38916e-07
-5.198e-06
-1.07344e-06
-4.6561e-06
-1.73261e-06
-3.94181e-06
-2.25687e-06
-3.11003e-06
-2.58846e-06
-2.23191e-06
-2.67742e-06
-1.39156e-06
-2.4905e-06
-6.80239e-07
-2.02233e-06
-1.88653e-07
-1.3089e-06
-4.43275e-07
-2.3997e-07
7.02521e-07
-8.39473e-07
1.92158e-06
-1.68062e-06
2.84763e-06
-2.65212e-06
3.41758e-06
-3.65362e-06
3.62238e-06
-4.5986e-06
3.48709e-06
-5.41581e-06
3.05656e-06
-6.04932e-06
2.38613e-06
-6.45807e-06
1.53628e-06
-6.61536e-06
5.7034e-07
-6.50876e-06
-4.45517e-07
-6.14082e-06
-1.44138e-06
-5.53048e-06
-2.34295e-06
-4.715e-06
-3.07235e-06
-3.75171e-06
-3.55175e-06
-2.71868e-06
-3.71046e-06
-1.71314e-06
-3.49604e-06
-8.46795e-07
-2.88868e-06
-2.37682e-07
-1.91801e-06
-6.80956e-07
-2.87152e-07
9.89673e-07
-9.95963e-07
2.63039e-06
-1.978e-06
3.82967e-06
-3.09735e-06
4.53693e-06
-4.23702e-06
4.76205e-06
-5.30119e-06
4.55127e-06
-6.21468e-06
3.97005e-06
-6.92085e-06
3.0923e-06
-7.37911e-06
1.99453e-06
-7.56288e-06
7.54114e-07
-7.45864e-06
-5.49753e-07
-7.06634e-06
-1.83368e-06
-6.40135e-06
-3.00794e-06
-5.49775e-06
-3.97595e-06
-4.41226e-06
-4.63723e-06
-3.22768e-06
-4.89504e-06
-2.05395e-06
-4.66977e-06
-1.02517e-06
-3.91746e-06
-2.90634e-07
-2.65255e-06
-9.7159e-07
-3.37226e-07
1.3269e-06
-1.15887e-06
3.45203e-06
-2.28196e-06
4.95276e-06
-3.54381e-06
5.79877e-06
-4.81083e-06
6.02907e-06
-5.97979e-06
5.72023e-06
-6.97459e-06
4.96485e-06
-7.74111e-06
3.85882e-06
-8.24206e-06
2.49549e-06
-8.45289e-06
9.64941e-07
-8.35949e-06
-6.43157e-07
-7.95819e-06
-2.23498e-06
-7.25824e-06
-3.70788e-06
-6.28674e-06
-4.94746e-06
-5.09537e-06
-5.8286e-06
-3.76771e-06
-6.2227e-06
-2.42451e-06
-6.01297e-06
-1.22365e-06
-5.11833e-06
-3.51024e-07
-3.52517e-06
-1.32261e-06
-3.92463e-07
1.71936e-06
-1.33264e-06
4.39221e-06
-2.59593e-06
6.21604e-06
-3.98971e-06
7.19256e-06
-5.3646e-06
7.40396e-06
-6.61343e-06
6.96905e-06
-7.66387e-06
6.01529e-06
-8.46915e-06
4.6641e-06
-8.99934e-06
3.02568e-06
-9.23466e-06
1.20026e-06
-9.16153e-06
-7.1629e-07
-8.77185e-06
-2.62467e-06
-8.06582e-06
-4.41391e-06
-7.05859e-06
-5.95469e-06
-5.7904e-06
-7.09679e-06
-4.33904e-06
-7.67406e-06
-2.83151e-06
-7.5205e-06
-1.44957e-06
-6.50026e-06
-4.22409e-07
-4.55233e-06
-1.74502e-06
-4.55691e-07
2.17505e-06
-1.52185e-06
5.45837e-06
-2.92102e-06
7.61521e-06
-4.42658e-06
8.69812e-06
-5.87557e-06
8.85295e-06
-7.16281e-06
8.2563e-06
-8.22698e-06
7.07945e-06
-9.03542e-06
5.47255e-06
-9.57111e-06
3.56136e-06
-9.82286e-06
1.45201e-06
-9.77954e-06
-7.59615e-07
-9.42821e-06
-2.97599e-06
-8.75701e-06
-5.08511e-06
-7.76314e-06
-6.94856e-06
-6.4667e-06
-8.39323e-06
-4.92952e-06
-9.21124e-06
-3.27608e-06
-9.17395e-06
-1.7092e-06
-8.06714e-06
-5.08736e-07
-5.7528e-06
-2.25376e-06
-5.31195e-07
2.70625e-06
-1.73236e-06
6.65954e-06
-3.25604e-06
9.13888e-06
-4.83727e-06
1.02793e-05
-6.30483e-06
1.03205e-05
-7.56532e-06
9.51679e-06
-8.57884e-06
8.09297e-06
-9.3359e-06
6.22962e-06
-9.83931e-06
4.06476e-06
-1.00913e-05
1.70401e-06
-1.00859e-05
-7.65035e-07
-9.80572e-06
-3.25615e-06
-9.22432e-06
-5.66651e-06
-8.3146e-06
-7.85828e-06
-7.06566e-06
-9.64218e-06
-5.50882e-06
-1.07681e-05
-3.75104e-06
-1.09317e-05
-2.00746e-06
-9.81072e-06
-6.14918e-07
-7.14534e-06
-2.86867e-06
-6.26071e-07
3.33232e-06
-1.9724e-06
8.00587e-06
-3.59614e-06
1.07626e-05
-5.19146e-06
1.18747e-05
-6.5903e-06
1.17194e-05
-7.72679e-06
1.06533e-05
-8.59674e-06
8.96292e-06
-9.22478e-06
6.85766e-06
-9.64111e-06
4.4811e-06
-9.86656e-06
1.92946e-06
-9.90357e-06
-7.28025e-07
-9.73199e-06
-3.42773e-06
-9.30968e-06
-6.08882e-06
-8.57992e-06
-8.58804e-06
-7.48913e-06
-1.0733e-05
-6.01915e-06
-1.22381e-05
-4.23575e-06
-1.27151e-05
-2.34708e-06
-1.16994e-05
-7.47664e-07
-8.74475e-06
-3.61634e-06
-7.5217e-07
4.08449e-06
-2.25275e-06
9.50646e-06
-3.92764e-06
1.24375e-05
-5.43506e-06
1.33821e-05
-6.63322e-06
1.29175e-05
-7.50785e-06
1.15279e-05
-8.10863e-06
9.5637e-06
-8.50552e-06
7.25455e-06
-8.76259e-06
4.73817e-06
-8.92311e-06
2.08997e-06
-9.00113e-06
-6.49999e-07
-8.97666e-06
-3.4522e-06
-8.79381e-06
-6.27166e-06
-8.36447e-06
-9.01738e-06
-7.58287e-06
-1.15146e-05
-6.35984e-06
-1.34611e-05
-4.68601e-06
-1.4389e-05
-2.72558e-06
-1.36598e-05
-9.1655e-07
-1.05538e-05
-4.53288e-06
-9.28316e-07
5.01281e-06
-2.58266e-06
1.11608e-05
-4.21286e-06
1.40677e-05
-5.46679e-06
1.4636e-05
-6.27235e-06
1.37231e-05
-6.70122e-06
1.19568e-05
-6.87629e-06
9.73876e-06
-6.92077e-06
7.29903e-06
-6.9342e-06
4.7516e-06
-6.98233e-06
2.1381e-06
-7.09227e-06
-5.40057e-07
-7.24838e-06
-3.29609e-06
-7.38749e-06
-6.13256e-06
-7.39558e-06
-9.00928e-06
-7.11299e-06
-1.17972e-05
-6.36136e-06
-1.42127e-05
-5.01347e-06
-1.57369e-05
-3.12655e-06
-1.55467e-05
-1.13459e-06
-1.25457e-05
-5.66747e-06
-1.179e-06
6.1918e-06
-2.95121e-06
1.2933e-05
-4.35112e-06
1.54676e-05
-5.08906e-06
1.5374e-05
-5.23747e-06
1.38715e-05
-4.99574e-06
1.17151e-05
-4.57301e-06
9.31604e-06
-4.14267e-06
6.86869e-06
-3.83113e-06
4.44006e-06
-3.71916e-06
2.02613e-06
-3.8445e-06
-4.14719e-07
-4.20049e-06
-2.94009e-06
-4.72867e-06
-5.60438e-06
-5.30615e-06
-8.4318e-06
-5.73393e-06
-1.13694e-05
-5.74181e-06
-1.42048e-05
-5.04321e-06
-1.64355e-05
-3.4941e-06
-1.70958e-05
-1.41349e-06
-1.46264e-05
-7.08096e-06
-1.515e-06
7.7068e-06
-3.2681e-06
1.46861e-05
-4.08635e-06
1.62859e-05
-3.9111e-06
1.51987e-05
-3.07109e-06
1.30315e-05
-1.9256e-06
1.05696e-05
-7.5889e-07
8.14933e-06
2.31029e-07
5.87877e-06
9.15952e-07
3.75514e-06
1.21816e-06
1.72392e-06
1.09753e-06
-2.94087e-07
5.48351e-07
-2.39092e-06
-3.92364e-07
-4.66367e-06
-1.62368e-06
-7.20048e-06
-2.94775e-06
-1.00453e-05
-4.0358e-06
-1.31168e-05
-4.42904e-06
-1.60422e-05
-3.66699e-06
-1.78579e-05
-1.73817e-06
-1.65552e-05
-8.81913e-06
-1.88262e-06
9.58942e-06
-3.21425e-06
1.60177e-05
-2.80484e-06
1.58765e-05
-1.17267e-06
1.35665e-05
9.87241e-07
1.08715e-05
3.18678e-06
8.37003e-06
5.13281e-06
6.20329e-06
6.66268e-06
4.3489e-06
7.69007e-06
2.72775e-06
8.16804e-06
1.24594e-06
8.06791e-06
-1.93954e-07
7.37164e-06
-1.69465e-06
6.07784e-06
-3.36986e-06
4.22515e-06
-5.34779e-06
1.94021e-06
-7.76039e-06
-4.84518e-07
-1.06921e-05
-2.49352e-06
-1.40332e-05
-3.23822e-06
-1.71132e-05
-2.0111e-06
-1.77823e-05
-1.08302e-05
-2.09776e-06
1.16872e-05
-1.84613e-06
1.57661e-05
8.9388e-07
1.31365e-05
4.53498e-06
9.92544e-06
8.12511e-06
7.28141e-06
1.12512e-05
5.24391e-06
1.37603e-05
3.69419e-06
1.56148e-05
2.49446e-06
1.68198e-05
1.52274e-06
1.73856e-05
6.80148e-07
1.73086e-05
-1.16952e-07
1.65634e-05
-9.4948e-07
1.51033e-05
-1.90973e-06
1.28729e-05
-3.11737e-06
9.84669e-06
-4.73421e-06
6.11789e-06
-6.96327e-06
2.08287e-06
-9.99818e-06
-1.22302e-06
-1.38073e-05
-1.98281e-06
-1.70225e-05
-1.2813e-05
-8.8114e-07
1.25683e-05
3.89192e-06
1.0993e-05
1.00859e-05
6.94246e-06
1.55688e-05
4.44259e-06
1.99408e-05
2.90936e-06
2.32679e-05
1.9168e-06
2.57034e-05
1.25866e-06
2.73931e-05
8.04829e-07
2.84462e-05
4.69579e-07
2.89292e-05
1.97201e-07
2.88643e-05
-5.21086e-08
2.82281e-05
-3.13293e-07
2.69458e-05
-6.27343e-07
2.48823e-05
-1.05394e-06
2.1839e-05
-1.69085e-06
1.75753e-05
-2.69959e-06
1.19226e-05
-4.34549e-06
5.22187e-06
-7.10657e-06
-3.08797e-07
-1.14918e-05
-1.31218e-05
1.25683e-05
2.35614e-05
3.05038e-05
3.49464e-05
3.78558e-05
3.97726e-05
4.10313e-05
4.18361e-05
4.23057e-05
4.25029e-05
4.24508e-05
4.21375e-05
4.15101e-05
4.04562e-05
3.87653e-05
3.60657e-05
3.17203e-05
2.46137e-05
1.31218e-05
)
;

boundaryField
{
    movingWall
    {
        type            calculated;
        value           uniform 0;
    }
    fixedWalls
    {
        type            calculated;
        value           uniform 0;
    }
    frontAndBack
    {
        type            empty;
    }
}


// ************************************************************************* //
