/*--------------------------------*- C++ -*----------------------------------*\
| =========                 |                                                 |
| \\      /  F ield         | OpenFOAM: The Open Source CFD Toolbox           |
|  \\    /   O peration     | Version:  2512                                  |
|   \\  /    A nd           | Website:  www.openfoam.com                      |
|    \\/     M anipulation  |                                                 |
\*---------------------------------------------------------------------------*/
FoamFile
{
    version     2.0;
    format      ascii;
    arch        "LSB;label=32;scalar=64";
    class       volVectorField;
    location    "0.4";
    object      U;
}
// * * * * * * * * * * * * * * * * * * * * * * * * * * * * * * * * * * * * * //

dimensions      [0 1 -1 0 0 0 0];

internalField   nonuniform List<vector> 
400
(
(0.000188276 -0.000188724 0)
(-5.17004e-05 2.18634e-05 0)
(-0.00137056 0.00028002 0)
(-0.00362008 0.000458378 0)
(-0.00644324 0.000547324 0)
(-0.00945755 0.000558308 0)
(-0.0123201 0.000505392 0)
(-0.0147452 0.000402677 0)
(-0.0165106 0.000263419 0)
(-0.0174597 0.000100275 0)
(-0.0175045 -7.38545e-05 0)
(-0.0166294 -0.000244942 0)
(-0.014897 -0.000397272 0)
(-0.0124534 -0.000513425 0)
(-0.00952987 -0.000574989 0)
(-0.00643855 -0.000564277 0)
(-0.00355598 -0.000466962 0)
(-0.00128991 -0.00027573 0)
(2.83037e-06 -8.73981e-06 0)
(0.000199754 0.000199402 0)
(-3.05974e-06 3.0657e-05 0)
(-0.00173353 0.00174235 0)
(-0.00578846 0.00365915 0)
(-0.0117796 0.00506436 0)
(-0.0189247 0.00577231 0)
(-0.0263983 0.00579147 0)
(-0.0334304 0.00520395 0)
(-0.0393579 0.00412189 0)
(-0.0436557 0.00266961 0)
(-0.0459525 0.000978128 0)
(-0.0460423 -0.000814246 0)
(-0.0438944 -0.00255969 0)
(-0.039665 -0.00410044 0)
(-0.0337038 -0.00527277 0)
(-0.0265527 -0.00591739 0)
(-0.018925 -0.00589854 0)
(-0.0116568 -0.00513381 0)
(-0.00562543 -0.00364363 0)
(-0.00161851 -0.00166632 0)
(1.95951e-05 2.93719e-05 0)
(-0.000257892 0.0013249 0)
(-0.00381712 0.00581661 0)
(-0.0106374 0.0102068 0)
(-0.0200004 0.0133474 0)
(-0.0307631 0.014866 0)
(-0.0418052 0.0147555 0)
(-0.0520837 0.0131834 0)
(-0.0606927 0.0104041 0)
(-0.0669102 0.00671496 0)
(-0.0702252 0.00243882 0)
(-0.0703544 -0.00207983 0)
(-0.0672574 -0.00647425 0)
(-0.0611498 -0.0103581 0)
(-0.0525115 -0.0133376 0)
(-0.0420815 -0.0150392 0)
(-0.0308283 -0.0151558 0)
(-0.0198823 -0.0135162 0)
(-0.0104396 -0.0101868 0)
(-0.00366341 -0.00565252 0)
(-0.000225778 -0.00118614 0)
(-0.000477038 0.00371479 0)
(-0.00582333 0.0122885 0)
(-0.01534 0.0198703 0)
(-0.0278942 0.0250863 0)
(-0.0419503 0.0274543 0)
(-0.0561282 0.026989 0)
(-0.069182 0.0239781 0)
(-0.0800419 0.018858 0)
(-0.0878593 0.0121452 0)
(-0.0920344 0.00440512 0)
(-0.0922328 -0.00375775 0)
(-0.0884009 -0.0117013 0)
(-0.0807818 -0.0187518 0)
(-0.069927 -0.0242263 0)
(-0.0566969 -0.0274785 0)
(-0.0422336 -0.0279779 0)
(-0.0278951 -0.0254212 0)
(-0.015173 -0.0198831 0)
(-0.0056541 -0.012033 0)
(-0.000435827 -0.00347471 0)
(-0.000667073 0.00711012 0)
(-0.00770719 0.0210196 0)
(-0.0198405 0.0324501 0)
(-0.035481 0.0399769 0)
(-0.0526674 0.0431298 0)
(-0.0697593 0.0420274 0)
(-0.0853392 0.0371341 0)
(-0.0982199 0.0291115 0)
(-0.107474 0.0187295 0)
(-0.112448 0.0068247 0)
(-0.112773 -0.00571215 0)
(-0.108374 -0.0179366 0)
(-0.0994922 -0.0288564 0)
(-0.0867026 -0.0374598 0)
(-0.0709312 -0.0427784 0)
(-0.0534458 -0.0439962 0)
(-0.0358094 -0.0406039 0)
(-0.0198276 -0.0325959 0)
(-0.0075699 -0.0207158 0)
(-0.000619753 -0.00676246 0)
(-0.000845965 0.0114464 0)
(-0.00953458 0.0319294 0)
(-0.0242444 0.0478682 0)
(-0.0429127 0.0579147 0)
(-0.063129 0.0617445 0)
(-0.0829891 0.0596879 0)
(-0.100926 0.0524653 0)
(-0.115673 0.0410151 0)
(-0.126262 0.0263912 0)
(-0.132017 0.00971594 0)
(-0.132547 -0.00782731 0)
(-0.127748 -0.0249865 0)
(-0.117826 -0.0404382 0)
(-0.103335 -0.0528131 0)
(-0.0852148 -0.0607686 0)
(-0.064816 -0.0631228 0)
(-0.0438917 -0.0590535 0)
(-0.0245868 -0.0483484 0)
(-0.00951358 -0.0316993 0)
(-0.000800405 -0.0110163 0)
(-0.00102942 0.016712 0)
(-0.0113878 0.0450052 0)
(-0.0286838 0.0661033 0)
(-0.0503451 0.0788454 0)
(-0.0734898 0.0831979 0)
(-0.0959559 0.0798344 0)
(-0.116058 0.069829 0)
(-0.132493 0.0544576 0)
(-0.144301 0.0350845 0)
(-0.150818 0.01312 0)
(-0.151645 -0.0099736 0)
(-0.146641 -0.0326531 0)
(-0.135946 -0.0532704 0)
(-0.120038 -0.0700816 0)
(-0.0998066 -0.0813153 0)
(-0.0766289 -0.0853257 0)
(-0.0524174 -0.0808357 0)
(-0.0296705 -0.0672612 0)
(-0.0116116 -0.0450912 0)
(-0.000999582 -0.0162776 0)
(-0.00123189 0.0229426 0)
(-0.0133459 0.0602937 0)
(-0.0332768 0.0871601 0)
(-0.0578844 0.102697 0)
(-0.0837906 0.107337 0)
(-0.108598 0.102259 0)
(-0.130554 0.0890075 0)
(-0.14839 0.0692635 0)
(-0.161214 0.0447227 0)
(-0.168423 0.0170682 0)
(-0.169638 -0.0119953 0)
(-0.164676 -0.0406771 0)
(-0.153575 -0.067037 0)
(-0.136671 -0.0889578 0)
(-0.114715 -0.104191 0)
(-0.0890222 -0.110514 0)
(-0.0615973 -0.106015 0)
(-0.0352829 -0.089517 0)
(-0.0139907 -0.0611016 0)
(-0.00123899 -0.0226602 0)
(-0.00146909 0.0302185 0)
(-0.0154884 0.0778903 0)
(-0.0381208 0.111042 0)
(-0.0655661 0.129328 0)
(-0.0939223 0.133883 0)
(-0.120605 0.126593 0)
(-0.143886 0.109619 0)
(-0.162627 0.0851149 0)
(-0.176098 0.0551189 0)
(-0.18383 0.02155 0)
(-0.185501 -0.0137117 0)
(-0.180891 -0.0487058 0)
(-0.169898 -0.0812683 0)
(-0.152635 -0.108942 0)
(-0.129601 -0.128973 0)
(-0.101907 -0.13844 0)
(-0.0715267 -0.13458 0)
(-0.041591 -0.11532 0)
(-0.016777 -0.080029 0)
(-0.00154276 -0.0303491 0)
(-0.00176264 0.0386687 0)
(-0.017911 0.0979295 0)
(-0.0433023 0.137711 0)
(-0.0733433 0.158457 0)
(-0.103589 0.162332 0)
(-0.131361 0.152205 0)
(-0.155098 0.131014 0)
(-0.173938 0.101463 0)
(-0.187441 0.0659183 0)
(-0.195362 0.0264704 0)
(-0.1975 -0.0149286 0)
(-0.193612 -0.0562694 0)
(-0.183424 -0.0952805 0)
(-0.166739 -0.129248 0)
(-0.143651 -0.154922 0)
(-0.114869 -0.168576 0)
(-0.0821279 -0.166335 0)
(-0.0487089 -0.144828 0)
(-0.0201037 -0.102236 0)
(-0.00194185 -0.0396032 0)
(-0.00214787 0.0484908 0)
(-0.0207527 0.12058 0)
(-0.0489123 0.167033 0)
(-0.0810688 0.189556 0)
(-0.112249 0.191833 0)
(-0.139852 0.178064 0)
(-0.162701 0.152161 0)
(-0.180411 0.117427 0)
(-0.192993 0.076522 0)
(-0.200547 0.031599 0)
(-0.203062 -0.0154616 0)
(-0.200309 -0.0627705 0)
(-0.191825 -0.108123 0)
(-0.177016 -0.148699 0)
(-0.155401 -0.180833 0)
(-0.127027 -0.199935 0)
(-0.0930641 -0.200739 0)
(-0.0566735 -0.17804 0)
(-0.0241245 -0.128117 0)
(-0.00248115 -0.0507696 0)
(-0.00268722 0.0599938 0)
(-0.0242335 0.146044 0)
(-0.0550517 0.198688 0)
(-0.0884343 0.221704 0)
(-0.11899 0.22101 0)
(-0.144505 0.202587 0)
(-0.164501 0.171513 0)
(-0.179333 0.131703 0)
(-0.18964 0.0860148 0)
(-0.195989 0.0365159 0)
(-0.198647 -0.0151729 0)
(-0.197445 -0.0674953 0)
(-0.191745 -0.118547 0)
(-0.180502 -0.16564 0)
(-0.162497 -0.204878 0)
(-0.136808 -0.230853 0)
(-0.103588 -0.236668 0)
(-0.0653896 -0.214626 0)
(-0.0290285 -0.158039 0)
(-0.00323143 -0.0643126 0)
(-0.00349421 0.0736786 0)
(-0.0286968 0.174543 0)
(-0.0617874 0.232017 0)
(-0.0948058 0.253349 0)
(-0.12228 0.247736 0)
(-0.142904 0.22346 0)
(-0.157345 0.186894 0)
(-0.16698 0.142487 0)
(-0.173246 0.0931206 0)
(-0.17727 0.0405706 0)
(-0.179657 -0.0140174 0)
(-0.180365 -0.0696585 0)
(-0.178633 -0.125027 0)
(-0.172985 -0.177889 0)
(-0.161375 -0.224454 0)
(-0.141613 -0.258725 0)
(-0.112268 -0.272087 0)
(-0.074498 -0.253652 0)
(-0.035045 -0.192244 0)
(-0.00431098 -0.0808681 0)
(-0.00477054 0.0903517 0)
(-0.0346245 0.206242 0)
(-0.0689609 0.265715 0)
(-0.0988121 0.281947 0)
(-0.11944 0.268847 0)
(-0.131289 0.237476 0)
(-0.136709 0.195454 0)
(-0.138352 0.147502 0)
(-0.138521 0.0962347 0)
(-0.138901 0.0428873 0)
(-0.14044 -0.0120875 0)
(-0.143274 -0.0684952 0)
(-0.146636 -0.125865 0)
(-0.14876 -0.1828 0)
(-0.146848 -0.236111 0)
(-0.13729 -0.279737 0)
(-0.116483 -0.303607 0)
(-0.0830638 -0.293108 0)
(-0.0423897 -0.230617 0)
(-0.00591546 -0.1013 0)
(-0.00680748 0.11122 0)
(-0.0424832 0.240936 0)
(-0.0755844 0.297219 0)
(-0.0974007 0.303392 0)
(-0.10564 0.279816 0)
(-0.103703 0.240484 0)
(-0.0961217 0.193792 0)
(-0.0868644 0.14419 0)
(-0.078943 0.0936058 0)
(-0.074415 0.0424636 0)
(-0.0744602 -0.00963488 0)
(-0.0794089 -0.0634125 0)
(-0.0886575 -0.119442 0)
(-0.100458 -0.177521 0)
(-0.111627 -0.235687 0)
(-0.117342 -0.2887 0)
(-0.111486 -0.325928 0)
(-0.0888339 -0.329146 0)
(-0.0509841 -0.272154 0)
(-0.00829191 -0.126686 0)
(-0.00980353 0.138146 0)
(-0.0519799 0.277362 0)
(-0.0782053 0.32151 0)
(-0.0838056 0.311157 0)
(-0.0720781 0.274515 0)
(-0.050698 0.227615 0)
(-0.0264291 0.178426 0)
(-0.00409116 0.130228 0)
(0.0131459 0.0837557 0)
(0.0233017 0.038421 0)
(0.0252378 -0.00703827 0)
(0.0184865 -0.0541976 0)
(0.00329488 -0.104653 0)
(-0.0190864 -0.159575 0)
(-0.0458396 -0.21882 0)
(-0.0717812 -0.279175 0)
(-0.0887234 -0.331259 0)
(-0.0865578 -0.354872 0)
(-0.0595081 -0.314059 0)
(-0.0115061 -0.158463 0)
(-0.0137531 0.175126 0)
(-0.0598598 0.311861 0)
(-0.0669842 0.32908 0)
(-0.0435217 0.295433 0)
(-0.00302311 0.24556 0)
(0.0423276 0.194274 0)
(0.0848272 0.146926 0)
(0.12016 0.104524 0)
(0.146043 0.0662229 0)
(0.161276 0.0304449 0)
(0.165171 -0.00469647 0)
(0.157266 -0.0412859 0)
(0.137308 -0.0815898 0)
(0.105511 -0.127943 0)
(0.0632495 -0.18224 0)
(0.014347 -0.244459 0)
(-0.0329926 -0.309213 0)
(-0.0645707 -0.358776 0)
(-0.0630473 -0.35027 0)
(-0.015314 -0.199772 0)
(-0.0187316 0.227245 0)
(-0.0534006 0.332795 0)
(-0.0166627 0.303332 0)
(0.0527939 0.244357 0)
(0.12796 0.187272 0)
(0.196309 0.139231 0)
(0.253074 0.100444 0)
(0.296791 0.0690378 0)
(0.32736 0.0427411 0)
(0.345059 0.0194254 0)
(0.350013 -0.00287808 0)
(0.341955 -0.0261524 0)
(0.320138 -0.0526374 0)
(0.283441 -0.0850711 0)
(0.230812 -0.126777 0)
(0.162402 -0.181124 0)
(0.0819663 -0.249256 0)
(0.00214648 -0.323294 0)
(-0.0469579 -0.365416 0)
(-0.0188861 -0.252835 0)
(-0.00226928 0.258732 0)
(0.0195562 0.298286 0)
(0.136201 0.221743 0)
(0.259451 0.153624 0)
(0.359663 0.105205 0)
(0.436294 0.0716737 0)
(0.493303 0.0483176 0)
(0.534052 0.0315397 0)
(0.561128 0.0187624 0)
(0.576305 0.00817439 0)
(0.580484 -0.00160015 0)
(0.573669 -0.0118176 0)
(0.554903 -0.0239269 0)
(0.522117 -0.0399525 0)
(0.471981 -0.0629925 0)
(0.399803 -0.0977491 0)
(0.299658 -0.150694 0)
(0.169701 -0.227793 0)
(0.039852 -0.314423 0)
(0.00400149 -0.275089 0)
(0.268726 0.115948 0)
(0.378786 0.100418 0)
(0.540346 0.0528046 0)
(0.658962 0.0282103 0)
(0.732612 0.0163936 0)
(0.779412 0.00976217 0)
(0.810181 0.00579734 0)
(0.830269 0.00336987 0)
(0.842696 0.00178278 0)
(0.849203 0.000615635 0)
(0.850625 -0.00039528 0)
(0.847077 -0.00146232 0)
(0.837942 -0.00283226 0)
(0.821647 -0.00489818 0)
(0.795162 -0.00835593 0)
(0.752855 -0.014414 0)
(0.683191 -0.0256785 0)
(0.565518 -0.0500544 0)
(0.397183 -0.0996017 0)
(0.275601 -0.118502 0)
)
;

boundaryField
{
    movingWall
    {
        type            fixedValue;
        value           uniform (1 0 0);
    }
    fixedWalls
    {
        type            noSlip;
    }
    frontAndBack
    {
        type            empty;
    }
}


// ************************************************************************* //
